1 : ci44_pVDZ.inp
2 : .
3 : 1
4 : 1
----- GAMESS execution script 'rungms' -----
This job is running on host ccp01
under operating system Linux at Wed 02 Feb 2022 04:06:32 PM CET
Available scratch disk space (Kbyte units) at beginning of the job is
Filesystem                         1K-blocks       Used   Available Use% Mounted on
130.89.6.81:/exports/home/shinde 17395693568 3932173312 12590191616  24% /home/shinde
GAMESS temporary binary files will be written to .
GAMESS supplementary output files will be written to .
Copying input file ./ci44_pVDZ.inp to your run's scratch directory...

 Distributed Data Interface kickoff program.
 Initiating 1 compute processes on 1 nodes to run the following command:
 /software/gamess_intel_oneapi/gamess.00.x ci44_pVDZ 

          *******************************************************
          *                                                     *
          *      GAMESS VERSION = 30 SEP 2021 (R2 Patch 1)      *
          *                                                     *
          *              doi.org/10.1063/5.0005188              *
          *                                                     *
          **************** 64 BIT INTEL VERSION *****************

  GAMESS HAS BEEN MADE POSSIBLE WITH IMPORTANT CONTRIBUTIONS FROM
  THE FOLLOWING INDIVIDUALS (IN ALPHABETICAL ORDER):

     IVANA ADAMOVIC, CHRISTINE AIKENS, TOMOKO AKAMA,
     YURI ALEXEEV, YURIKO AOKI, POOJA ARORA, TOSHIO ASADA,
     ANDREY ASADCHEV, KIM K. BALDRIDGE, PRADIPTA BANDYOPADHYAY,
     TAYLOR A. BARNES, MARIA BARYSZ, ROB BELL,
     JONATHAN BENTZ, COLLEEN BERTONI,
     JERRY A. BOATZ, BRETT BODE, KURT BRORSEN, KURT R. BRORSEN,
     LAIMUTIS BYTAUTAS, CALEB CARLIN, LAURA CARRINGTON,
     GALINA CHABAN, BENOIT CHAMPAGNE, WEI CHEN, MAHITO CHIBA,
     DAN CHIPMAN, CHEOL HO CHOI, TANNER CULPITT,
     DIPAYAN DATTA, PAUL DAY, ALBERT DEFUSCO,
     NUWAN DESILVA, J. EMILIANO DEUSTUA,
     TIM DUDLEY, MICHEL DUPUIS, STEVEN T. ELBERT,
     DMITRI FEDOROV, ALEX FINDLATER, GRAHAM FLETCHER,
     MARK FREITAG, CHRISTIAN FRIEDL, DAVID GARMER,
     IGOR S. GERASIMOV, KURT GLAESEMANN, MARK S. GORDON,
     JEFFREY GOUR, FENG LONG GU, EMILIE B. GUIDEZ,
     ANASTASIA GUNINA, SHARON HAMMES-SCHIFFER, MASATAKE HARUTA,
     KIMIHIKO HIRAO, YASUHIRO IKABATA, TZVETELIN IORDANOV,
     STEPHAN IRLE, KAZUYA ISHIMURA, JOE IVANIC, FRANK JENSEN,
     JAN H. JENSEN, VISVALDAS KAIRYS, MUNEAKI KAMIYA,
     MICHIO KATOUDA, NAOAKI KAWAKAMI, DAN KEMP, BERNARD KIRTMAN,
     KAZUO KITAURA, MARIUSZ KLOBUKOWSKI, MASATO KOBAYASHI,
     PRAKASHAN KORAMBATH, JACEK KORCHOWIEC, SHIRO KOSEKI,
     KAROL KOWALSKI, JIMMY KROMANN, STANISLAW KUCHARSKI,
     HENRY KURTZ, SAROM SOK LEANG, HUI LI, SHUHUA LI, WEI LI,
     JESSE LUTZ, ALEKSANDR O. LYKHIN, MARCIN MAKOWSKI,
     JOANI MATO, NIKITA MATSUNAGA, BENEDETTA MENNUCCI,
     GRANT MERRILL, NORIYUKI MINEZAWA, VLADIMIR MIRONOV,
     EISAKU MIYOSHI, JOHN A. MONTGOMERY JR., HIROTOSHI MORI,
     JONATHAN MULLIN, MONIKA MUSIAL, SHIGERU NAGASE,
     TAKESHI NAGATA, HIROMI NAKAI, TAKAHITO NAKAJIMA,
     YUYA NAKAJIMA, HARUYUKI NAKANO, HIROYA NAKATA, SEAN NEDD,
     HEATHER NETZLOFF, KIET A. NGUYEN, YOSHIO NISHIMOTO,
     BOSILJKA NJEGIC, RYAN OLSON, MIKE PAK, ROBERTO PEVERATI,
     BUU PHAM, PIOTR PIECUCH, ANNA POMOGAEVA, DAVID POOLE,
     SPENCER PRUITT, OLIVIER QUINET, LUKE ROSKOP,
     KLAUS RUEDENBERG, ANDREW SAND, TOSAPORN SATTASATHUCHANA,
     NOZOMI SAWADA, MICHAEL W. SCHMIDT, PATRICK E. SCHNEIDER,
     JUNJI SEINO, PRACHI SHARMA, JUN SHEN, JIM SHOEMAKER,
     YINAN SHU, DEJUN SI, JONATHAN SKONE, LYUDMILA SLIPCHENKO,
     TONY SMITH, JIE SONG, MARK SPACKMAN, CASPER STEINMANN,
     WALT STEVENS, PEIFENG SU, SHUJUN SU, CHET SWALINA,
     TETSUYA TAKETSUGU, ZHEN TAO, NANDUN THELLAMUREGE
     SEIKEN TOKURA, JACOPO TOMASI, TSUGUKI TOUMA, TAKAO TSUNEDA,
     HIROAKI UMEDA, JORGE LUIS GALVEZ VALLEJO, YALI WANG,
     SIMON WEBB, AARON WEST, THERESA L. WINDUS, MARTA WLOCH,
     PENG XU, KIYOSHI YAGI, SUSUMU YANAGISAWA, YANG YANG,
     SOOHAENG YOO, TAKESHI YOSHIKAWA, FEDERICO ZAHARIEV,
     TOBY ZENG

  WHO ARE SUPPORTED BY THEIR INSTITUTION/UNIVERSITY/COMPANY/GROUP
  (IN ALPHABETICAL ORDER):

     EP ANALYTICS, FACULTES UNIVERSITAIRES NOTRE-DAME DE LA PAIX,
     INSTITUTE FOR MOLECULAR SCIENCE, IOWA STATE UNIVERSITY,
     JACKSON STATE UNIVERSITY, JOHANNES KEPLER UNIVERSITY LINZ,
     KYUSHU UNIVERSITY, MICHIGAN STATE UNIVERSITY,
     MIE UNIVERSITY, THE MOLECULAR SCIENCES SOFTWARE INSTITUTE,
     MOSCOW STATE UNIVERSITY,
     N. COPERNICUS UNIVERSITY, NAGOYA UNIVERSITY,
     NANJING UNIVERSITY, NAT. INST. OF ADVANCED INDUSTRIAL
     SCIENCE AND TECHNOLOGY, NATIONAL INST. OF STANDARDS AND
     TECHNOLOGY, NESMEYANOV INSTITUTE OF ORGANOELEMENT COMPOUNDS
     OF RUSSIAN ACADEMY OF SCIENCES, OSAKA PREFECTURE UNIVERSITY,
     PENNSYLVANIA STATE UNIVERSITY, TOKYO INSTITUTE OF TECHNOLOGY,
     UNIVERSITY OF AARHUS, UNIVERSITY OF ALBERTA,
     UNIVERSITY OF CALIFORNIA AT SANTA BARBARA,
     UNIVERSITY OF COPENHAGEN, UNIVERSITY OF IOWA,
     UNIVERSITY OF MEMPHIS, UNIVERSITY OF MINNESOTA,
     UNIVERSITY OF NEBRASKA, UNIVERSITY OF NEW ENGLAND,
     UNIVERSITY OF NOTRE DAME, UNIVERSITY OF PISA,
     UNIVERSITY OF SILESIA, UNIVERSITY OF TOKYO,
     UNIVERSITY OF ZURICH, WASEDA UNIVERSITY, YALE UNIVERSITY

  GAMESS SOFTWARE MANAGEMENT TEAM FOR THIS RELEASE:
     MARK S. GORDON (TEAM LEAD),
     BRETT BODE (SENIOR ADVISOR),
     GIUSEPPE BARCA,
     COLLEEN BERTONI,
     KRISTOPHER KEIPERT (ADVISOR),
     SAROM S. LEANG (DEVELOPMENT LEAD),
     BUU PHAM,
     JORGE LUIS GALVEZ VALLEJO (WEBSITE ADMINISTRATOR),
     PENG XU

 EXECUTION OF GAMESS BEGUN 16:06:33 02-FEB-2022    

            ECHO OF THE FIRST FEW INPUT CARDS -
 INPUT CARD> $CONTRL SCFTYP=NONE ECP=READ RUNTYP=ENERGY                                     
 INPUT CARD>         COORD=UNIQUE MULT=1 NORMF=1                                            
 INPUT CARD>         CITYP=GUGA                                                             
 INPUT CARD> $END                                                                           
 INPUT CARD> $SYSTEM TIMLIM=60 MWORDS=100 $END                                              
 INPUT CARD> $BASIS  EXTFIL=.TRUE. GBASIS=BFD-D $END                                        
 INPUT CARD> $GUESS  GUESS=MOREAD NORB=86 NORDER=0                                          
 INPUT CARD>         PRTMO=.TRUE.                                                           
 INPUT CARD> $END                                                                           
 INPUT CARD> $CIDRT  NFZC=9 NDOC=2 NVAL=2 NEXT=0 FORS=.TRUE.                                
 INPUT CARD>         GROUP=C2H ISTSYM=1 NPRT=2                                              
 INPUT CARD> $END                                                                           
 INPUT CARD> $MCSCF  CISTEP=GUGA FULLNR=.TRUE. MAXIT=2000 $END                              
 INPUT CARD> $GUGDIA PRTTOL=0.  KPRINT=2  NSTATE=1 $END                                     
 INPUT CARD> $DATA                                                                          
 INPUT CARD>- Butadiene C2h                                                                 
 INPUT CARD>CNH 2                                                                           
 INPUT CARD>                                                                                
 INPUT CARD>C  6.  0.612753    0.388232    0.                                               
 INPUT CARD>C  6.  1.834350   -0.157794    0.                                               
 INPUT CARD>H  1.  1.961466   -1.231090    0.                                               
 INPUT CARD>H  1.  0.509700    1.466975    0.                                               
 INPUT CARD>H  1.  2.723649    0.452738    0.                                               
 INPUT CARD> $END                                                                           
 INPUT CARD> $ECP                                                                           
 INPUT CARD>C-ECP       GEN 2 1                                                             
 INPUT CARD>3                                                                               
 INPUT CARD>   4.00000000 1 8.35973821                                                      
 INPUT CARD>  33.43895285 3 4.48361888                                                      
 INPUT CARD> -19.17537323 2 3.93831258                                                      
 INPUT CARD>1                                                                               
 INPUT CARD>  22.55164191 2 5.02991637                                                      
 INPUT CARD>C-ECP                                                                           
 INPUT CARD>C-ECP                                                                           
 INPUT CARD>C-ECP                                                                           
 INPUT CARD>H-ECP  GEN 0 0                                                                  
 INPUT CARD>3                                                                               
 INPUT CARD> 1.000000000000 1 25.000000000000                                               
 INPUT CARD>25.000000000000 3 10.821821902641                                               
 INPUT CARD>-8.228005709676 2  9.368618758833                                               
 INPUT CARD>H-ECP                                                                           
 INPUT CARD>H-ECP                                                                           
 INPUT CARD>H-ECP                                                                           
 INPUT CARD>H-ECP                                                                           
 INPUT CARD>H-ECP                                                                           
 INPUT CARD>$END                                                                            
 INPUT CARD>--- OPTIMIZED MCSCF MO-S --- GENERATED AT 15:53:57 02-FEB-2022                  
 INPUT CARD>- Butadiene C2h                                                                 
 INPUT CARD>E(MCSCF)=      -25.5730232490, E(NUC)=       56.4214060261                      
 INPUT CARD> $VEC                                                                           
  100000000 WORDS OF MEMORY AVAILABLE

     $BASIS REQUESTS READING THE "BFD-D   " BASIS SET FROM AN EXTERNAL FILE


     RUN TITLE
     ---------
 - Butadiene C2h                                                                 

 THE POINT GROUP OF THE MOLECULE IS CNH     
 THE ORDER OF THE PRINCIPAL AXIS IS     2

 THE EXTERNAL BASIS SET FILE BEING READ IS
     "/software/gamess_intel_oneapi_pool/BFD_Basis.data_Hw1"

 ATOM      ATOMIC                      COORDINATES (BOHR)
           CHARGE         X                   Y                   Z
 C           6.0    -1.1579352682       -0.7336520997        0.0000000000
 C           6.0     1.1579352682        0.7336520997        0.0000000000
 C           6.0    -3.4664188656        0.2981874225        0.0000000000
 C           6.0     3.4664188656       -0.2981874225        0.0000000000
 H           1.0    -3.7066332742        2.3264227662        0.0000000000
 H           1.0     3.7066332742       -2.3264227662        0.0000000000
 H           1.0    -0.9631933359       -2.7721807808        0.0000000000
 H           1.0     0.9631933359        2.7721807808        0.0000000000
 H           1.0    -5.1469502967       -0.8555507642        0.0000000000
 H           1.0     5.1469502967        0.8555507642        0.0000000000

          INTERNUCLEAR DISTANCES (ANGS.)
          ------------------------------

                1 C          2 C          3 C          4 C          5 H     

   1 C       0.0000000    1.4507795 *  1.3380746 *  2.4579290 *  2.1074227 *
   2 C       1.4507795 *  0.0000000    2.4579290 *  1.3380746 *  2.7086921 *
   3 C       1.3380746 *  2.4579290 *  0.0000000    3.6822487    1.0807973 *
   4 C       2.4579290 *  1.3380746 *  3.6822487    0.0000000    4.0419324  
   5 H       2.1074227 *  2.7086921 *  1.0807973 *  4.0419324    0.0000000  
   6 H       2.7086921 *  2.1074227 *  4.0419324    1.0807973 *  4.6316008  
   7 H       1.0836542 *  2.1683389 *  2.0963234 *  2.6848697 *  3.0638504  
   8 H       2.1683389 *  1.0836542 *  2.6848697 *  2.0963234 *  2.4823987 *
   9 H       2.1118814 *  3.4407570    1.0787039 *  4.5675318    1.8482964 *
  10 H       3.4407570    2.1118814 *  4.5675318    1.0787039 *  4.7493299  

                6 H          7 H          8 H          9 H         10 H     

   1 C       2.7086921 *  1.0836542 *  2.1683389 *  2.1118814 *  3.4407570  
   2 C       2.1074227 *  2.1683389 *  1.0836542 *  3.4407570    2.1118814 *
   3 C       4.0419324    2.0963234 *  2.6848697 *  1.0787039 *  4.5675318  
   4 C       1.0807973 *  2.6848697 *  2.0963234 *  4.5675318    1.0787039 *
   5 H       4.6316008    3.0638504    2.4823987 *  1.8482964 *  4.7493299  
   6 H       0.0000000    2.4823987 *  3.0638504    4.7493299    1.8482964 *
   7 H       2.4823987 *  0.0000000    3.1060005    2.4352098 *  3.7602984  
   8 H       3.0638504    3.1060005    0.0000000    3.7602984    2.4352098 *
   9 H       4.7493299    2.4352098 *  3.7602984    0.0000000    5.5220415  
  10 H       1.8482964 *  3.7602984    2.4352098 *  5.5220415    0.0000000  

  * ... LESS THAN  3.000


     ATOMIC BASIS SET
     ----------------
 THE CONTRACTED PRIMITIVE FUNCTIONS HAVE BEEN UNNORMALIZED

  SHELL TYPE  PRIMITIVE        EXPONENT          CONTRACTION COEFFICIENT(S)

 C         

      6   S       1             0.0513440    0.013991000000
      6   S       2             0.1026190    0.169852000000
      6   S       3             0.2051000    0.397529000000
      6   S       4             0.4099240    0.380369000000
      6   S       5             0.8192970    0.180113000000
      6   S       6             1.6374940   -0.033512000000
      6   S       7             3.2727910   -0.121499000000
      6   S       8             6.5411870    0.015176000000
      6   S       9            13.0735940   -0.000705000000

      7   S      10             0.1278520    1.000000000000

      8   P      11             0.0292810    0.001787000000
      8   P      12             0.0585470    0.050426000000
      8   P      13             0.1170630    0.191634000000
      8   P      14             0.2340640    0.302667000000
      8   P      15             0.4680030    0.289868000000
      8   P      16             0.9357570    0.210979000000
      8   P      17             1.8710160    0.112024000000
      8   P      18             3.7410350    0.054425000000
      8   P      19             7.4800760    0.021931000000

      9   P      20             0.1491610    1.000000000000

     10   D      21             0.5611600    1.000000000000

 C         

     16   S      22             0.0513440    0.013991000000
     16   S      23             0.1026190    0.169852000000
     16   S      24             0.2051000    0.397529000000
     16   S      25             0.4099240    0.380369000000
     16   S      26             0.8192970    0.180113000000
     16   S      27             1.6374940   -0.033512000000
     16   S      28             3.2727910   -0.121499000000
     16   S      29             6.5411870    0.015176000000
     16   S      30            13.0735940   -0.000705000000

     17   S      31             0.1278520    1.000000000000

     18   P      32             0.0292810    0.001787000000
     18   P      33             0.0585470    0.050426000000
     18   P      34             0.1170630    0.191634000000
     18   P      35             0.2340640    0.302667000000
     18   P      36             0.4680030    0.289868000000
     18   P      37             0.9357570    0.210979000000
     18   P      38             1.8710160    0.112024000000
     18   P      39             3.7410350    0.054425000000
     18   P      40             7.4800760    0.021931000000

     19   P      41             0.1491610    1.000000000000

     20   D      42             0.5611600    1.000000000000

 H         

     24   S      43             6.4641755    0.068156440000
     24   S      44             1.1389146    0.363254590000
     24   S      45             0.2800325    0.752410060000

     25   S      46             0.0590840    1.000000000000

     26   P      47             0.5136806    1.000000000000

 H         

     30   S      48             6.4641755    0.068156440000
     30   S      49             1.1389146    0.363254590000
     30   S      50             0.2800325    0.752410060000

     31   S      51             0.0590840    1.000000000000

     32   P      52             0.5136806    1.000000000000

 H         

     36   S      53             6.4641755    0.068156440000
     36   S      54             1.1389146    0.363254590000
     36   S      55             0.2800325    0.752410060000

     37   S      56             0.0590840    1.000000000000

     38   P      57             0.5136806    1.000000000000

 TOTAL NUMBER OF BASIS SET SHELLS             =   38
 NUMBER OF CARTESIAN GAUSSIAN BASIS FUNCTIONS =   86
 NUMBER OF ELECTRONS                          =   30
 CHARGE OF MOLECULE                           =    0
 SPIN MULTIPLICITY                            =    1
 NUMBER OF OCCUPIED ORBITALS (ALPHA)          =   15
 NUMBER OF OCCUPIED ORBITALS (BETA )          =   15
 TOTAL NUMBER OF ATOMS                        =   10
 THE NUCLEAR REPULSION ENERGY IS      104.0602992543
 NOTE THIS RUN IS USING CORE POTENTIALS, AND THE NUMBER OF ELECTRONS,
 OCCUPIED ORBITALS, AND NUCLEAR REPULSION ENERGY WILL BE ADJUSTED BELOW
 AFTER REMOVAL OF THE CORE CHARGES.

     $CONTRL OPTIONS
     ---------------
 SCFTYP=NONE         RUNTYP=ENERGY       EXETYP=RUN     
 MPLEVL=       0     CITYP =GUGA         CCTYP =NONE         VBTYP =NONE    
 DFTTYP=NONE         TDDFT =NONE    
 MULT  =       1     ICHARG=       0     NZVAR =       0     COORD =UNIQUE  
 PP    =READ         RELWFN=NONE         LOCAL =NONE         NUMGRD=       F
 ISPHER=      -1     NOSYM =       0     MAXIT =      30     UNITS =ANGS    
 PLTORB=       F     MOLPLT=       F     AIMPAC=       F     FRIEND=        
 NPRINT=       7     IREST =       0     GEOM  =INPUT   
 NORMF =       1     NORMP =       0     ITOL  =      20     ICUT  =       9
 INTTYP=BEST         GRDTYP=BEST         QMTTOL= 1.0E-06

     $SYSTEM OPTIONS
     ---------------
  REPLICATED MEMORY=   100000000 WORDS (ON EVERY NODE).
 DISTRIBUTED MEMDDI=           0 MILLION WORDS IN AGGREGATE,
 MEMDDI DISTRIBUTED OVER   1 PROCESSORS IS           0 WORDS/PROCESSOR.
 TOTAL MEMORY REQUESTED ON EACH PROCESSOR=   100000000 WORDS.
 TIMLIM=          60.00 MINUTES, OR       0.0 DAYS.
 PARALL= F  BALTYP=  DLB     KDIAG=    0  COREFL= F
 MXSEQ2=     300 MXSEQ3=     150  mem10=         0  mem22=         0

          --------------
          ECP POTENTIALS
          --------------

 PARAMETERS FOR "C-ECP   " ON ATOM    1 WITH ZCORE   2 AND LMAX  1 ARE
 FOR L= 1      COEFF    N           ZETA
    1        4.00000    1        8.35974
    2       33.43895    3        4.48362
    3      -19.17537    2        3.93831
 FOR L= 0      COEFF    N           ZETA
    1       22.55164    2        5.02992

 PARAMETERS FOR "C-ECP   " ON ATOM    2 ARE THE SAME AS ATOM   1

 PARAMETERS FOR "C-ECP   " ON ATOM    3 ARE THE SAME AS ATOM   1

 PARAMETERS FOR "C-ECP   " ON ATOM    4 ARE THE SAME AS ATOM   1

 PARAMETERS FOR "H-ECP   " ON ATOM    5 WITH ZCORE   0 AND LMAX  0 ARE
 FOR L= 0      COEFF    N           ZETA
    1        1.00000    1       25.00000
    2       25.00000    3       10.82182
    3       -8.22801    2        9.36862

 PARAMETERS FOR "H-ECP   " ON ATOM    6 ARE THE SAME AS ATOM   5

 PARAMETERS FOR "H-ECP   " ON ATOM    7 ARE THE SAME AS ATOM   5

 PARAMETERS FOR "H-ECP   " ON ATOM    8 ARE THE SAME AS ATOM   5

 PARAMETERS FOR "H-ECP   " ON ATOM    9 ARE THE SAME AS ATOM   5

 PARAMETERS FOR "H-ECP   " ON ATOM   10 ARE THE SAME AS ATOM   5

 THE ECP RUN REMOVES    8 CORE ELECTRONS, AND THE SAME NUMBER OF PROTONS.
 NUMBER OF ELECTRONS KEPT IN THE CALCULATION IS =   22
 NUMBER OF OCCUPIED ORBITALS (ALPHA) KEPT IS    =   11
 NUMBER OF OCCUPIED ORBITALS (BETA ) KEPT IS    =   11
 THE ADJUSTED NUCLEAR REPULSION ENERGY=       56.4214060261
          ECP ANGULAR INTS.........     0.00 SECONDS

          ----------------
          PROPERTIES INPUT
          ----------------

     MOMENTS            FIELD           POTENTIAL          DENSITY
 IEMOM =       1   IEFLD =       0   IEPOT =       0   IEDEN =       0
 WHERE =COMASS     WHERE =NUCLEI     WHERE =NUCLEI     WHERE =NUCLEI  
 OUTPUT=BOTH       OUTPUT=BOTH       OUTPUT=BOTH       OUTPUT=BOTH    
 IEMINT=       0   IEFINT=       0                     IEDINT=       0
                                                       MORB  =       0
          EXTRAPOLATION IN EFFECT
          SOSCF IN EFFECT
 ORBITAL PRINTING OPTION: NPREO=     1    86     2     1

     -------------------------------
     INTEGRAL TRANSFORMATION OPTIONS
     -------------------------------
     NWORD  =            0
     CUTOFF = 1.0E-09     MPTRAN =       0
     DIRTRF =       F     AOINTS =DUP     

          ----------------------
          INTEGRAL INPUT OPTIONS
          ----------------------
 NOPK  =       1 NORDER=       0 SCHWRZ=       T

     ------------------------------------------
     THE POINT GROUP IS CNH, NAXIS= 2, ORDER= 4
     ------------------------------------------

     DIMENSIONS OF THE SYMMETRY SUBSPACES ARE
 AG  =   32     AU  =   11     BU  =   32     BG  =   11

 ..... DONE SETTING UP THE RUN .....
 STEP CPU TIME =     0.07 TOTAL CPU TIME =          0.1 (      0.0 MIN)
 TOTAL WALL CLOCK TIME=          0.1 SECONDS, CPU UTILIZATION IS    95.03%

          ********************
          1 ELECTRON INTEGRALS
          ********************
 TIME TO DO ORDINARY INTEGRALS=      0.01
 TIME TO DO      ECP INTEGRALS=      0.04
 ...... END OF ONE-ELECTRON INTEGRALS ......
 STEP CPU TIME =     0.05 TOTAL CPU TIME =          0.1 (      0.0 MIN)
 TOTAL WALL CLOCK TIME=          0.1 SECONDS, CPU UTILIZATION IS    97.06%

          -------------
          GUESS OPTIONS
          -------------
          GUESS =MOREAD            NORB  =      86          NORDER=       0
          MIX   =       F          PRTMO =       T          PUNMO =       F
          TOLZ  = 1.0E-08          TOLE  = 1.0E-05
          SYMDEN=       F          PURIFY=       F

 INITIAL GUESS ORBITALS GENERATED BY MOREAD   ROUTINE.
 EIGENVALUES ARE DIAGONAL OF 1E- H IN MO BASIS

 SYMMETRIES FOR INITIAL GUESS ORBITALS FOLLOW.   BOTH SET(S).
    11 ORBITALS ARE OCCUPIED (    0 CORE ORBITALS).
     1=AG       2=BU       3=AG       4=BU       5=BU       6=AG       7=AG  
     8=BU       9=AG      10=AU      11=BG      12=AU      13=BG      14=AG  
    15=BU      16=BU      17=AG      18=AG      19=BU      20=BU      21=AG  
    22=BU      23=BU      24=AG      25=BU      26=AG      27=AG      28=BU  
    29=BG      30=AU      31=AG      32=AG      33=BG      34=BU      35=AU  
    36=BU      37=BU      38=AG      39=BU      40=AU      41=BG      42=AG  
    43=BU      44=BG      45=AU      46=AG      47=AU      48=BU      49=AG  
    50=AG      51=BU      52=BG      53=AG      54=BU      55=AU      56=AG  
    57=BG      58=BU      59=AG      60=BU      61=AU      62=BG      63=AG  
    64=BU      65=BU      66=AU      67=AG      68=BG      69=AG      70=BU  
    71=AG      72=BU      73=AU      74=BG      75=AG      76=BU      77=BU  
    78=AG      79=BU      80=AG      81=AG      82=BU      83=BU      84=AG  
    85=AG      86=BU  

                              ----------------------
                              INITIAL GUESS ORBITALS
                              ----------------------

                      1          2          3          4          5
                   -7.7382    -7.3396    -6.8369    -6.6902    -6.6155
                     AG         BU         AG         BU         BU  
    1  C  1  S    0.477820  -0.304376  -0.278425  -0.320308   0.132267
    2  C  1  S   -0.117781   0.023032   0.058546   0.096719  -0.003194
    3  C  1  X    0.008139   0.205194  -0.262996   0.015925  -0.214225
    4  C  1  Y    0.079494  -0.034983  -0.012347   0.261497   0.249090
    5  C  1  Z    0.000000   0.000000   0.000000   0.000000   0.000000
    6  C  1  X   -0.014552  -0.087904   0.081307  -0.020404   0.051792
    7  C  1  Y    0.001368  -0.019367  -0.017228  -0.065102  -0.047845
    8  C  1  Z    0.000000   0.000000   0.000000   0.000000   0.000000
    9  C  1 XX    0.025062  -0.008102  -0.001759  -0.001950  -0.002857
   10  C  1 YY    0.006553  -0.004950  -0.015224  -0.012478   0.002342
   11  C  1 ZZ   -0.003278   0.000694   0.002996   0.001630   0.000505
   12  C  1 XY    0.001254   0.013690  -0.017452   0.007096  -0.009239
   13  C  1 XZ    0.000000   0.000000   0.000000   0.000000   0.000000
   14  C  1 YZ    0.000000   0.000000   0.000000   0.000000   0.000000
   15  C  2  S    0.477820   0.304376  -0.278425   0.320308  -0.132267
   16  C  2  S   -0.117781  -0.023032   0.058546  -0.096719   0.003194
   17  C  2  X   -0.008139   0.205194   0.262996   0.015925  -0.214225
   18  C  2  Y   -0.079494  -0.034983   0.012347   0.261497   0.249090
   19  C  2  Z    0.000000   0.000000   0.000000   0.000000   0.000000
   20  C  2  X    0.014552  -0.087904  -0.081307  -0.020404   0.051792
   21  C  2  Y   -0.001368  -0.019367   0.017228  -0.065102  -0.047845
   22  C  2  Z    0.000000   0.000000   0.000000   0.000000   0.000000
   23  C  2 XX    0.025062   0.008102  -0.001759   0.001950   0.002857
   24  C  2 YY    0.006553   0.004950  -0.015224   0.012478  -0.002342
   25  C  2 ZZ   -0.003278  -0.000694   0.002996  -0.001630  -0.000505
   26  C  2 XY    0.001254  -0.013690  -0.017452  -0.007096   0.009239
   27  C  2 XZ    0.000000   0.000000   0.000000   0.000000   0.000000
   28  C  2 YZ    0.000000   0.000000   0.000000   0.000000   0.000000
   29  C  3  S    0.307426  -0.455045   0.402680   0.181531  -0.068862
   30  C  3  S   -0.120408   0.146460  -0.085155  -0.068226  -0.017524
   31  C  3  X    0.110438  -0.098301  -0.125343  -0.115552   0.430570
   32  C  3  Y   -0.036402   0.050837   0.015748   0.181417   0.031367
   33  C  3  Z    0.000000   0.000000   0.000000   0.000000   0.000000
   34  C  3  X   -0.042922   0.031433   0.046571   0.022483  -0.109237
   35  C  3  Y    0.010198  -0.003928  -0.006756  -0.038223  -0.001846
   36  C  3  Z    0.000000   0.000000   0.000000   0.000000   0.000000
   37  C  3 XX    0.015884  -0.015267   0.004663   0.001201   0.003683
   38  C  3 YY    0.000798  -0.009440   0.016427   0.010264  -0.010288
   39  C  3 ZZ   -0.000114   0.001402  -0.001691  -0.002428   0.000964
   40  C  3 XY   -0.004733   0.008691   0.004870   0.010832  -0.019653
   41  C  3 XZ    0.000000   0.000000   0.000000   0.000000   0.000000
   42  C  3 YZ    0.000000   0.000000   0.000000   0.000000   0.000000
   43  C  4  S    0.307426   0.455045   0.402680  -0.181531   0.068862
   44  C  4  S   -0.120408  -0.146460  -0.085155   0.068226   0.017524
   45  C  4  X   -0.110438  -0.098301   0.125343  -0.115552   0.430570
   46  C  4  Y    0.036402   0.050837  -0.015748   0.181417   0.031367
   47  C  4  Z    0.000000   0.000000   0.000000   0.000000   0.000000
   48  C  4  X    0.042922   0.031433  -0.046571   0.022483  -0.109237
   49  C  4  Y   -0.010198  -0.003928   0.006756  -0.038223  -0.001846
   50  C  4  Z    0.000000   0.000000   0.000000   0.000000   0.000000
   51  C  4 XX    0.015884   0.015267   0.004663  -0.001201  -0.003683
   52  C  4 YY    0.000798   0.009440   0.016427  -0.010264   0.010288
   53  C  4 ZZ   -0.000114  -0.001402  -0.001691   0.002428  -0.000964
   54  C  4 XY   -0.004733  -0.008691   0.004870  -0.010832   0.019653
   55  C  4 XZ    0.000000   0.000000   0.000000   0.000000   0.000000
   56  C  4 YZ    0.000000   0.000000   0.000000   0.000000   0.000000
   57  H  5  S    0.066146  -0.105149   0.146334   0.166725  -0.040053
   58  H  5  S    0.003537  -0.010855   0.016813  -0.001962  -0.014231
   59  H  5  X    0.003622  -0.003040  -0.002723   0.000766   0.011900
   60  H  5  Y   -0.009357   0.012317  -0.014373  -0.012921   0.002934
   61  H  5  Z    0.000000   0.000000   0.000000   0.000000   0.000000
   62  H  6  S    0.066146   0.105149   0.146334  -0.166725   0.040053
   63  H  6  S    0.003537   0.010855   0.016813   0.001962   0.014231
   64  H  6  X   -0.003622  -0.003040   0.002723   0.000766   0.011900
   65  H  6  Y    0.009357   0.012317   0.014373  -0.012921   0.002934
   66  H  6  Z    0.000000   0.000000   0.000000   0.000000   0.000000
   67  H  7  S    0.097749  -0.064255  -0.093372  -0.247153  -0.107306
   68  H  7  S    0.002063  -0.007650  -0.007087  -0.004571   0.001209
   69  H  7  X   -0.000162   0.007287  -0.005898   0.001939  -0.003920
   70  H  7  Y    0.012763  -0.007341  -0.008053  -0.020195  -0.007128
   71  H  7  Z    0.000000   0.000000   0.000000   0.000000   0.000000
   72  H  8  S    0.097749   0.064255  -0.093372   0.247153   0.107306
   73  H  8  S    0.002063   0.007650  -0.007087   0.004571  -0.001209
   74  H  8  X    0.000162   0.007287   0.005898   0.001939  -0.003920
   75  H  8  Y   -0.012763  -0.007341   0.008053  -0.020195  -0.007128
   76  H  8  Z    0.000000   0.000000   0.000000   0.000000   0.000000
   77  H  9  S    0.056037  -0.108524   0.177141   0.062644  -0.247833
   78  H  9  S    0.007451   0.000436   0.002999   0.013576  -0.020014
   79  H  9  X    0.008482  -0.013253   0.011506   0.000061  -0.007934
   80  H  9  Y    0.002052  -0.007552   0.012556   0.006236  -0.011865
   81  H  9  Z    0.000000   0.000000   0.000000   0.000000   0.000000
   82  H 10  S    0.056037   0.108524   0.177141  -0.062644   0.247833
   83  H 10  S    0.007451  -0.000436   0.002999  -0.013576   0.020014
   84  H 10  X   -0.008482  -0.013253  -0.011506   0.000061  -0.007934
   85  H 10  Y   -0.002052  -0.007552  -0.012556   0.006236  -0.011865
   86  H 10  Z    0.000000   0.000000   0.000000   0.000000   0.000000

                      6          7          8          9         10
                   -6.6456    -6.9027    -6.2085    -6.4653    -6.7581
                     AG         AG         BU         AG         AU  
    1  C  1  S    0.024004   0.002553   0.068578   0.070394   0.000000
    2  C  1  S    0.029898  -0.047338   0.041741   0.023758   0.000000
    3  C  1  X   -0.256135  -0.400282   0.139490   0.221259   0.000000
    4  C  1  Y   -0.259496   0.211104  -0.193950   0.377167   0.000000
    5  C  1  Z    0.000000   0.000000   0.000000   0.000000   0.465519
    6  C  1  X    0.033009   0.115138  -0.011121  -0.064221   0.000000
    7  C  1  Y    0.067378  -0.055267   0.055340  -0.034460   0.000000
    8  C  1  Z    0.000000   0.000000   0.000000   0.000000  -0.027428
    9  C  1 XX   -0.002583   0.018114  -0.012553   0.030270   0.000000
   10  C  1 YY    0.002863  -0.023003   0.017670  -0.031718   0.000000
   11  C  1 ZZ    0.000343   0.001538  -0.000291   0.001270   0.000000
   12  C  1 XY   -0.005359  -0.021751  -0.013744   0.020270   0.000000
   13  C  1 XZ    0.000000   0.000000   0.000000   0.000000  -0.001167
   14  C  1 YZ    0.000000   0.000000   0.000000   0.000000   0.015109
   15  C  2  S    0.024004   0.002553  -0.068578   0.070394   0.000000
   16  C  2  S    0.029898  -0.047338  -0.041741   0.023758   0.000000
   17  C  2  X    0.256135   0.400282   0.139490  -0.221259   0.000000
   18  C  2  Y    0.259496  -0.211104  -0.193950  -0.377167   0.000000
   19  C  2  Z    0.000000   0.000000   0.000000   0.000000   0.465519
   20  C  2  X   -0.033009  -0.115138  -0.011121   0.064221   0.000000
   21  C  2  Y   -0.067378   0.055267   0.055340   0.034460   0.000000
   22  C  2  Z    0.000000   0.000000   0.000000   0.000000  -0.027428
   23  C  2 XX   -0.002583   0.018114   0.012553   0.030270   0.000000
   24  C  2 YY    0.002863  -0.023003  -0.017670  -0.031718   0.000000
   25  C  2 ZZ    0.000343   0.001538   0.000291   0.001270   0.000000
   26  C  2 XY   -0.005359  -0.021751   0.013744   0.020270   0.000000
   27  C  2 XZ    0.000000   0.000000   0.000000   0.000000   0.001167
   28  C  2 YZ    0.000000   0.000000   0.000000   0.000000  -0.015109
   29  C  3  S   -0.028730   0.083167  -0.019890   0.011784   0.000000
   30  C  3  S   -0.029770   0.005813   0.005839  -0.038754   0.000000
   31  C  3  X   -0.009168   0.440514   0.024333  -0.121834   0.000000
   32  C  3  Y   -0.378178  -0.071805   0.424454  -0.244246   0.000000
   33  C  3  Z    0.000000   0.000000   0.000000   0.000000   0.347630
   34  C  3  X   -0.010212  -0.082874  -0.005392   0.000301   0.000000
   35  C  3  Y    0.096275   0.002967  -0.086127   0.035780   0.000000
   36  C  3  Z    0.000000   0.000000   0.000000   0.000000  -0.018552
   37  C  3 XX    0.006478   0.006573  -0.023330   0.023563   0.000000
   38  C  3 YY   -0.011074  -0.010773   0.024151  -0.023614   0.000000
   39  C  3 ZZ    0.000415   0.003169   0.000325   0.000711   0.000000
   40  C  3 XY   -0.001309  -0.018477  -0.014061   0.024122   0.000000
   41  C  3 XZ    0.000000   0.000000   0.000000   0.000000   0.019134
   42  C  3 YZ    0.000000   0.000000   0.000000   0.000000  -0.008100
   43  C  4  S   -0.028730   0.083167   0.019890   0.011784   0.000000
   44  C  4  S   -0.029770   0.005813  -0.005839  -0.038754   0.000000
   45  C  4  X    0.009168  -0.440514   0.024333   0.121834   0.000000
   46  C  4  Y    0.378178   0.071805   0.424454   0.244246   0.000000
   47  C  4  Z    0.000000   0.000000   0.000000   0.000000   0.347630
   48  C  4  X    0.010212   0.082874  -0.005392  -0.000301   0.000000
   49  C  4  Y   -0.096275  -0.002967  -0.086127  -0.035780   0.000000
   50  C  4  Z    0.000000   0.000000   0.000000   0.000000  -0.018552
   51  C  4 XX    0.006478   0.006573   0.023330   0.023563   0.000000
   52  C  4 YY   -0.011074  -0.010773  -0.024151  -0.023614   0.000000
   53  C  4 ZZ    0.000415   0.003169  -0.000325   0.000711   0.000000
   54  C  4 XY   -0.001309  -0.018477   0.014061   0.024122   0.000000
   55  C  4 XZ    0.000000   0.000000   0.000000   0.000000  -0.019134
   56  C  4 YZ    0.000000   0.000000   0.000000   0.000000   0.008100
   57  H  5  S   -0.231106  -0.054801   0.274928  -0.175965   0.000000
   58  H  5  S   -0.009069  -0.000543   0.058686  -0.041114   0.000000
   59  H  5  X   -0.001561   0.008018   0.002693  -0.006649   0.000000
   60  H  5  Y    0.013206   0.000014  -0.009480   0.002135   0.000000
   61  H  5  Z    0.000000   0.000000   0.000000   0.000000   0.009951
   62  H  6  S   -0.231106  -0.054801  -0.274928  -0.175965   0.000000
   63  H  6  S   -0.009069  -0.000543  -0.058686  -0.041114   0.000000
   64  H  6  X    0.001561  -0.008018   0.002693   0.006649   0.000000
   65  H  6  Y   -0.013206  -0.000014  -0.009480  -0.002135   0.000000
   66  H  6  Z    0.000000   0.000000   0.000000   0.000000   0.009951
   67  H  7  S    0.146986  -0.168045   0.166742  -0.244601   0.000000
   68  H  7  S    0.013350  -0.034397   0.046015  -0.053444   0.000000
   69  H  7  X   -0.007229  -0.010548  -0.001590   0.004792   0.000000
   70  H  7  Y    0.009274  -0.005630   0.006636  -0.003940   0.000000
   71  H  7  Z    0.000000   0.000000   0.000000   0.000000   0.012388
   72  H  8  S    0.146986  -0.168045  -0.166742  -0.244601   0.000000
   73  H  8  S    0.013350  -0.034397  -0.046015  -0.053444   0.000000
   74  H  8  X    0.007229   0.010548  -0.001590  -0.004792   0.000000
   75  H  8  Y   -0.009274   0.005630   0.006636   0.003940   0.000000
   76  H  8  Z    0.000000   0.000000   0.000000   0.000000   0.012388
   77  H  9  S    0.119852  -0.183976  -0.186736   0.184125   0.000000
   78  H  9  S   -0.002127  -0.026535  -0.039094   0.051426   0.000000
   79  H  9  X    0.011265  -0.000316  -0.010525   0.005491   0.000000
   80  H  9  Y   -0.002172  -0.008548   0.002782  -0.000916   0.000000
   81  H  9  Z    0.000000   0.000000   0.000000   0.000000   0.009402
   82  H 10  S    0.119852  -0.183976   0.186736   0.184125   0.000000
   83  H 10  S   -0.002127  -0.026535   0.039094   0.051426   0.000000
   84  H 10  X   -0.011265   0.000316  -0.010525  -0.005491   0.000000
   85  H 10  Y    0.002172   0.008548   0.002782   0.000916   0.000000
   86  H 10  Z    0.000000   0.000000   0.000000   0.000000   0.009402

                     11         12         13         14         15
                   -6.4541    -6.4667    -6.6172    -3.5872    -3.6901
                     BG         AU         BG         AG         BU  
    1  C  1  S    0.000000   0.000000   0.000000   0.042900   0.062091
    2  C  1  S    0.000000   0.000000   0.000000   0.210816   0.641441
    3  C  1  X    0.000000   0.000000   0.000000   0.026117  -0.000833
    4  C  1  Y    0.000000   0.000000   0.000000  -0.099015  -0.119716
    5  C  1  Z    0.365868  -0.496518  -0.762736   0.000000   0.000000
    6  C  1  X    0.000000   0.000000   0.000000   0.179045   0.112550
    7  C  1  Y    0.000000   0.000000   0.000000  -0.273889  -0.031432
    8  C  1  Z    0.023648   0.014040  -0.032099   0.000000   0.000000
    9  C  1 XX    0.000000   0.000000   0.000000  -0.006215   0.005474
   10  C  1 YY    0.000000   0.000000   0.000000   0.004525   0.000173
   11  C  1 ZZ    0.000000   0.000000   0.000000  -0.011441  -0.009086
   12  C  1 XY    0.000000   0.000000   0.000000   0.001534   0.002322
   13  C  1 XZ   -0.029809  -0.017338   0.015650   0.000000   0.000000
   14  C  1 YZ    0.005290  -0.003205   0.000978   0.000000   0.000000
   15  C  2  S    0.000000   0.000000   0.000000   0.042900  -0.062091
   16  C  2  S    0.000000   0.000000   0.000000   0.210816  -0.641441
   17  C  2  X    0.000000   0.000000   0.000000  -0.026117  -0.000833
   18  C  2  Y    0.000000   0.000000   0.000000   0.099015  -0.119716
   19  C  2  Z   -0.365868  -0.496518   0.762736   0.000000   0.000000
   20  C  2  X    0.000000   0.000000   0.000000  -0.179045   0.112550
   21  C  2  Y    0.000000   0.000000   0.000000   0.273889  -0.031432
   22  C  2  Z   -0.023648   0.014040   0.032099   0.000000   0.000000
   23  C  2 XX    0.000000   0.000000   0.000000  -0.006215  -0.005474
   24  C  2 YY    0.000000   0.000000   0.000000   0.004525  -0.000173
   25  C  2 ZZ    0.000000   0.000000   0.000000  -0.011441   0.009086
   26  C  2 XY    0.000000   0.000000   0.000000   0.001534  -0.002322
   27  C  2 XZ   -0.029809   0.017338   0.015650   0.000000   0.000000
   28  C  2 YZ    0.005290   0.003205   0.000978   0.000000   0.000000
   29  C  3  S    0.000000   0.000000   0.000000   0.083474  -0.038454
   30  C  3  S    0.000000   0.000000   0.000000   0.876603  -0.343931
   31  C  3  X    0.000000   0.000000   0.000000  -0.102094  -0.012246
   32  C  3  Y    0.000000   0.000000   0.000000   0.032958  -0.124272
   33  C  3  Z    0.487455   0.660934   0.566995   0.000000   0.000000
   34  C  3  X    0.000000   0.000000   0.000000  -0.021952  -0.086353
   35  C  3  Y    0.000000   0.000000   0.000000   0.027327  -0.202864
   36  C  3  Z    0.025838  -0.001518  -0.037264   0.000000   0.000000
   37  C  3 XX    0.000000   0.000000   0.000000   0.001063   0.001255
   38  C  3 YY    0.000000   0.000000   0.000000   0.003750  -0.003847
   39  C  3 ZZ    0.000000   0.000000   0.000000  -0.018341   0.007251
   40  C  3 XY    0.000000   0.000000   0.000000   0.000812  -0.000919
   41  C  3 XZ    0.016108  -0.002243  -0.009532   0.000000   0.000000
   42  C  3 YZ   -0.007323   0.000516   0.003203   0.000000   0.000000
   43  C  4  S    0.000000   0.000000   0.000000   0.083474   0.038454
   44  C  4  S    0.000000   0.000000   0.000000   0.876603   0.343931
   45  C  4  X    0.000000   0.000000   0.000000   0.102094  -0.012246
   46  C  4  Y    0.000000   0.000000   0.000000  -0.032958  -0.124272
   47  C  4  Z   -0.487455   0.660934  -0.566995   0.000000   0.000000
   48  C  4  X    0.000000   0.000000   0.000000   0.021952  -0.086353
   49  C  4  Y    0.000000   0.000000   0.000000  -0.027327  -0.202864
   50  C  4  Z   -0.025838  -0.001518   0.037264   0.000000   0.000000
   51  C  4 XX    0.000000   0.000000   0.000000   0.001063  -0.001255
   52  C  4 YY    0.000000   0.000000   0.000000   0.003750   0.003847
   53  C  4 ZZ    0.000000   0.000000   0.000000  -0.018341  -0.007251
   54  C  4 XY    0.000000   0.000000   0.000000   0.000812   0.000919
   55  C  4 XZ    0.016108   0.002243  -0.009532   0.000000   0.000000
   56  C  4 YZ   -0.007323  -0.000516   0.003203   0.000000   0.000000
   57  H  5  S    0.000000   0.000000   0.000000   0.011792   0.010916
   58  H  5  S    0.000000   0.000000   0.000000  -0.414077   0.791917
   59  H  5  X    0.000000   0.000000   0.000000   0.001995   0.001138
   60  H  5  Y    0.000000   0.000000   0.000000   0.005751  -0.005976
   61  H  5  Z    0.012330   0.009688   0.006184   0.000000   0.000000
   62  H  6  S    0.000000   0.000000   0.000000   0.011792  -0.010916
   63  H  6  S    0.000000   0.000000   0.000000  -0.414077  -0.791917
   64  H  6  X    0.000000   0.000000   0.000000  -0.001995   0.001138
   65  H  6  Y    0.000000   0.000000   0.000000  -0.005751  -0.005976
   66  H  6  Z   -0.012330   0.009688  -0.006184   0.000000   0.000000
   67  H  7  S    0.000000   0.000000   0.000000   0.024258  -0.030347
   68  H  7  S    0.000000   0.000000   0.000000  -0.471901  -0.767478
   69  H  7  X    0.000000   0.000000   0.000000  -0.003645  -0.000864
   70  H  7  Y    0.000000   0.000000   0.000000  -0.003595  -0.005068
   71  H  7  Z    0.008974  -0.006336  -0.008179   0.000000   0.000000
   72  H  8  S    0.000000   0.000000   0.000000   0.024258   0.030347
   73  H  8  S    0.000000   0.000000   0.000000  -0.471901   0.767478
   74  H  8  X    0.000000   0.000000   0.000000   0.003645  -0.000864
   75  H  8  Y    0.000000   0.000000   0.000000   0.003595  -0.005068
   76  H  8  Z   -0.008974  -0.006336   0.008179   0.000000   0.000000
   77  H  9  S    0.000000   0.000000   0.000000  -0.005292  -0.004123
   78  H  9  S    0.000000   0.000000   0.000000  -0.599003  -0.264663
   79  H  9  X    0.000000   0.000000   0.000000  -0.006705   0.000461
   80  H  9  Y    0.000000   0.000000   0.000000  -0.005028   0.001184
   81  H  9  Z    0.013077   0.010012   0.006686   0.000000   0.000000
   82  H 10  S    0.000000   0.000000   0.000000  -0.005292   0.004123
   83  H 10  S    0.000000   0.000000   0.000000  -0.599003   0.264663
   84  H 10  X    0.000000   0.000000   0.000000   0.006705   0.000461
   85  H 10  Y    0.000000   0.000000   0.000000   0.005028   0.001184
   86  H 10  Z   -0.013077   0.010012  -0.006686   0.000000   0.000000

                     16         17         18         19         20
                   -3.3665    -3.2841    -3.4338    -3.2777    -5.2310
                     BU         AG         AG         BU         BU  
    1  C  1  S   -0.007704   0.008774  -0.076811  -0.091998   0.230756
    2  C  1  S    0.267426   0.068367  -0.758618  -0.521820   5.160860
    3  C  1  X    0.022407  -0.011036   0.045342  -0.056952   0.100687
    4  C  1  Y   -0.046673  -0.028917   0.107586   0.061281   0.235187
    5  C  1  Z    0.000000   0.000000   0.000000   0.000000   0.000000
    6  C  1  X   -0.029203   0.069979   0.108109   0.113747   1.762029
    7  C  1  Y    0.001036  -0.184990   0.177086   0.245569   1.761876
    8  C  1  Z    0.000000   0.000000   0.000000   0.000000   0.000000
    9  C  1 XX    0.005255  -0.006360   0.002252   0.008384   0.058480
   10  C  1 YY   -0.006514   0.005151  -0.006268  -0.006105   0.041959
   11  C  1 ZZ   -0.005358  -0.003169   0.012399   0.006321  -0.010825
   12  C  1 XY   -0.009106   0.001252   0.000686   0.012878  -0.013261
   13  C  1 XZ    0.000000   0.000000   0.000000   0.000000   0.000000
   14  C  1 YZ    0.000000   0.000000   0.000000   0.000000   0.000000
   15  C  2  S    0.007704   0.008774  -0.076811   0.091998  -0.230756
   16  C  2  S   -0.267426   0.068367  -0.758618   0.521820  -5.160860
   17  C  2  X    0.022407   0.011036  -0.045342  -0.056952   0.100687
   18  C  2  Y   -0.046673   0.028917  -0.107586   0.061281   0.235187
   19  C  2  Z    0.000000   0.000000   0.000000   0.000000   0.000000
   20  C  2  X   -0.029203  -0.069979  -0.108109   0.113747   1.762029
   21  C  2  Y    0.001036   0.184990  -0.177086   0.245569   1.761876
   22  C  2  Z    0.000000   0.000000   0.000000   0.000000   0.000000
   23  C  2 XX   -0.005255  -0.006360   0.002252  -0.008384  -0.058480
   24  C  2 YY    0.006514   0.005151  -0.006268   0.006105  -0.041959
   25  C  2 ZZ    0.005358  -0.003169   0.012399  -0.006321   0.010825
   26  C  2 XY    0.009106   0.001252   0.000686  -0.012878   0.013261
   27  C  2 XZ    0.000000   0.000000   0.000000   0.000000   0.000000
   28  C  2 YZ    0.000000   0.000000   0.000000   0.000000   0.000000
   29  C  3  S    0.117756   0.001127   0.048699  -0.007497   0.120714
   30  C  3  S    0.645654   0.096500   0.685691  -0.007907  -1.254501
   31  C  3  X   -0.101233   0.077439  -0.032667  -0.043671   0.061787
   32  C  3  Y   -0.011211   0.164891   0.051157  -0.124876   0.135024
   33  C  3  Z    0.000000   0.000000   0.000000   0.000000   0.000000
   34  C  3  X   -0.223704   0.218153  -0.023485  -0.048744  -1.141138
   35  C  3  Y   -0.014795   0.334047  -0.003618  -0.336174  -0.220620
   36  C  3  Z    0.000000   0.000000   0.000000   0.000000   0.000000
   37  C  3 XX   -0.005291  -0.005133  -0.002660   0.001748  -0.001544
   38  C  3 YY   -0.000231   0.010178   0.008192  -0.000501  -0.060670
   39  C  3 ZZ   -0.015046  -0.001538  -0.009459   0.001393   0.041508
   40  C  3 XY    0.006806  -0.010528   0.012990  -0.000400   0.013393
   41  C  3 XZ    0.000000   0.000000   0.000000   0.000000   0.000000
   42  C  3 YZ    0.000000   0.000000   0.000000   0.000000   0.000000
   43  C  4  S   -0.117756   0.001127   0.048699   0.007497  -0.120714
   44  C  4  S   -0.645654   0.096500   0.685691   0.007907   1.254501
   45  C  4  X   -0.101233  -0.077439   0.032667  -0.043671   0.061787
   46  C  4  Y   -0.011211  -0.164891  -0.051157  -0.124876   0.135024
   47  C  4  Z    0.000000   0.000000   0.000000   0.000000   0.000000
   48  C  4  X   -0.223704  -0.218153   0.023485  -0.048744  -1.141138
   49  C  4  Y   -0.014795  -0.334047   0.003618  -0.336174  -0.220620
   50  C  4  Z    0.000000   0.000000   0.000000   0.000000   0.000000
   51  C  4 XX    0.005291  -0.005133  -0.002660  -0.001748   0.001544
   52  C  4 YY    0.000231   0.010178   0.008192   0.000501   0.060670
   53  C  4 ZZ    0.015046  -0.001538  -0.009459  -0.001393  -0.041508
   54  C  4 XY   -0.006806  -0.010528   0.012990   0.000400  -0.013393
   55  C  4 XZ    0.000000   0.000000   0.000000   0.000000   0.000000
   56  C  4 YZ    0.000000   0.000000   0.000000   0.000000   0.000000
   57  H  5  S   -0.002693   0.016668  -0.015058   0.006799  -0.198370
   58  H  5  S   -0.375449  -1.178170  -0.988331   1.533861   0.510794
   59  H  5  X    0.005535  -0.005049   0.003985   0.000076   0.003516
   60  H  5  Y    0.004001   0.009591   0.015321  -0.007674  -0.078603
   61  H  5  Z    0.000000   0.000000   0.000000   0.000000   0.000000
   62  H  6  S    0.002693   0.016668  -0.015058  -0.006799   0.198370
   63  H  6  S    0.375449  -1.178170  -0.988331  -1.533861  -0.510794
   64  H  6  X    0.005535   0.005049  -0.003985   0.000076   0.003516
   65  H  6  Y    0.004001  -0.009591  -0.015321  -0.007674  -0.078603
   66  H  6  Z    0.000000   0.000000   0.000000   0.000000   0.000000
   67  H  7  S   -0.007950   0.019900   0.003324   0.007169  -0.000219
   68  H  7  S   -0.208653  -0.219271   1.390225   1.581840   0.272806
   69  H  7  X    0.004632  -0.000208  -0.004617  -0.010614   0.010933
   70  H  7  Y   -0.000711  -0.000104   0.012169   0.010644  -0.024567
   71  H  7  Z    0.000000   0.000000   0.000000   0.000000   0.000000
   72  H  8  S    0.007950   0.019900   0.003324  -0.007169   0.000219
   73  H  8  S    0.208653  -0.219271   1.390225  -1.581840  -0.272806
   74  H  8  X    0.004632   0.000208   0.004617  -0.010614   0.010933
   75  H  8  Y   -0.000711   0.000104  -0.012169   0.010644  -0.024567
   76  H  8  Z    0.000000   0.000000   0.000000   0.000000   0.000000
   77  H  9  S   -0.003489  -0.011221   0.012117  -0.020234  -0.028305
   78  H  9  S   -0.944043   1.281327  -0.420367  -1.380710  -0.365536
   79  H  9  X   -0.005291   0.010279  -0.006345  -0.002259  -0.012758
   80  H  9  Y   -0.007681   0.001942  -0.010242  -0.000069   0.047804
   81  H  9  Z    0.000000   0.000000   0.000000   0.000000   0.000000
   82  H 10  S    0.003489  -0.011221   0.012117   0.020234   0.028305
   83  H 10  S    0.944043   1.281327  -0.420367   1.380710   0.365536
   84  H 10  X   -0.005291  -0.010279   0.006345  -0.002259  -0.012758
   85  H 10  Y   -0.007681  -0.001942   0.010242  -0.000069   0.047804
   86  H 10  Z    0.000000   0.000000   0.000000   0.000000   0.000000

                     21         22         23         24         25
                   -4.9662    -5.3621    -4.9464    -5.0538    -4.9687
                     AG         BU         BU         AG         BU  
    1  C  1  S   -0.136573   0.058353   0.146160  -0.202829   0.560774
    2  C  1  S   -3.947217   0.994727   2.228302   1.424293   0.039762
    3  C  1  X    0.016842  -0.153306  -0.410024  -0.246255   0.149384
    4  C  1  Y    0.101354   0.209129  -0.005444   0.082016  -0.088843
    5  C  1  Z    0.000000   0.000000   0.000000   0.000000   0.000000
    6  C  1  X    2.640159  -2.412290  -1.559444  -0.341603   0.071350
    7  C  1  Y   -1.594399  -0.223495   0.099092   0.399130   0.410999
    8  C  1  Z    0.000000   0.000000   0.000000   0.000000   0.000000
    9  C  1 XX   -0.037476  -0.077792   0.128905  -0.017202  -0.017171
   10  C  1 YY    0.026181   0.116348  -0.054840   0.073124  -0.118729
   11  C  1 ZZ   -0.018470  -0.032298  -0.008381  -0.034736   0.074466
   12  C  1 XY   -0.009872  -0.014342   0.028239  -0.079089  -0.019675
   13  C  1 XZ    0.000000   0.000000   0.000000   0.000000   0.000000
   14  C  1 YZ    0.000000   0.000000   0.000000   0.000000   0.000000
   15  C  2  S   -0.136573  -0.058353  -0.146160  -0.202829  -0.560774
   16  C  2  S   -3.947217  -0.994727  -2.228302   1.424293  -0.039762
   17  C  2  X   -0.016842  -0.153306  -0.410024   0.246255   0.149384
   18  C  2  Y   -0.101354   0.209129  -0.005444  -0.082016  -0.088843
   19  C  2  Z    0.000000   0.000000   0.000000   0.000000   0.000000
   20  C  2  X   -2.640159  -2.412290  -1.559444   0.341603   0.071350
   21  C  2  Y    1.594399  -0.223495   0.099092  -0.399130   0.410999
   22  C  2  Z    0.000000   0.000000   0.000000   0.000000   0.000000
   23  C  2 XX   -0.037476   0.077792  -0.128905  -0.017202   0.017171
   24  C  2 YY    0.026181  -0.116348   0.054840   0.073124   0.118729
   25  C  2 ZZ   -0.018470   0.032298   0.008381  -0.034736  -0.074466
   26  C  2 XY   -0.009872   0.014342  -0.028239  -0.079089   0.019675
   27  C  2 XZ    0.000000   0.000000   0.000000   0.000000   0.000000
   28  C  2 YZ    0.000000   0.000000   0.000000   0.000000   0.000000
   29  C  3  S    0.045775  -0.248003   0.219185   0.313883  -0.447159
   30  C  3  S    4.198676  -2.580055  -2.982667  -1.401234   0.250091
   31  C  3  X    0.210043  -0.050588   0.055713   0.112170   0.127012
   32  C  3  Y   -0.064346   0.061358  -0.229870   0.160294  -0.063528
   33  C  3  Z    0.000000   0.000000   0.000000   0.000000   0.000000
   34  C  3  X    2.076566  -1.445844  -1.911397  -0.946299  -0.238641
   35  C  3  Y   -0.941341   0.862494   1.114310   0.390274   0.002132
   36  C  3  Z    0.000000   0.000000   0.000000   0.000000   0.000000
   37  C  3 XX    0.073077   0.049141  -0.063258   0.033436   0.038224
   38  C  3 YY    0.013415  -0.011914   0.028178  -0.127692   0.097955
   39  C  3 ZZ   -0.037189  -0.050858   0.018794   0.068632  -0.101344
   40  C  3 XY    0.039749   0.065171  -0.066046   0.029904   0.028039
   41  C  3 XZ    0.000000   0.000000   0.000000   0.000000   0.000000
   42  C  3 YZ    0.000000   0.000000   0.000000   0.000000   0.000000
   43  C  4  S    0.045775   0.248003  -0.219185   0.313883   0.447159
   44  C  4  S    4.198676   2.580055   2.982667  -1.401234  -0.250091
   45  C  4  X   -0.210043  -0.050588   0.055713  -0.112170   0.127012
   46  C  4  Y    0.064346   0.061358  -0.229870  -0.160294  -0.063528
   47  C  4  Z    0.000000   0.000000   0.000000   0.000000   0.000000
   48  C  4  X   -2.076566  -1.445844  -1.911397   0.946299  -0.238641
   49  C  4  Y    0.941341   0.862494   1.114310  -0.390274   0.002132
   50  C  4  Z    0.000000   0.000000   0.000000   0.000000   0.000000
   51  C  4 XX    0.073077  -0.049141   0.063258   0.033436  -0.038224
   52  C  4 YY    0.013415   0.011914  -0.028178  -0.127692  -0.097955
   53  C  4 ZZ   -0.037189   0.050858  -0.018794   0.068632   0.101344
   54  C  4 XY    0.039749  -0.065171   0.066046   0.029904  -0.028039
   55  C  4 XZ    0.000000   0.000000   0.000000   0.000000   0.000000
   56  C  4 YZ    0.000000   0.000000   0.000000   0.000000   0.000000
   57  H  5  S   -0.024374  -0.014742   0.061089  -0.460831   0.279940
   58  H  5  S    0.168454  -0.184800  -0.386587   0.187976  -0.027861
   59  H  5  X    0.041637   0.069809  -0.054188   0.045751   0.022038
   60  H  5  Y    0.020702   0.027702   0.045313  -0.206996   0.201763
   61  H  5  Z    0.000000   0.000000   0.000000   0.000000   0.000000
   62  H  6  S   -0.024374   0.014742  -0.061089  -0.460831  -0.279940
   63  H  6  S    0.168454   0.184800   0.386587   0.187976   0.027861
   64  H  6  X   -0.041637   0.069809  -0.054188  -0.045751   0.022038
   65  H  6  Y   -0.020702   0.027702   0.045313   0.206996   0.201763
   66  H  6  Z    0.000000   0.000000   0.000000   0.000000   0.000000
   67  H  7  S    0.088745   0.308896  -0.235306   0.219930  -0.220634
   68  H  7  S   -0.455417  -0.335411  -0.172861  -0.077822   0.537633
   69  H  7  X   -0.013685   0.025990   0.027286   0.054655  -0.006129
   70  H  7  Y   -0.057500  -0.131045   0.073054  -0.124387   0.207472
   71  H  7  Z    0.000000   0.000000   0.000000   0.000000   0.000000
   72  H  8  S    0.088745  -0.308896   0.235306   0.219930   0.220634
   73  H  8  S   -0.455417   0.335411   0.172861  -0.077822  -0.537633
   74  H  8  X    0.013685   0.025990   0.027286  -0.054655  -0.006129
   75  H  8  Y    0.057500  -0.131045   0.073054   0.124387   0.207472
   76  H  8  Z    0.000000   0.000000   0.000000   0.000000   0.000000
   77  H  9  S    0.200413   0.249858  -0.266450   0.002401   0.263640
   78  H  9  S    0.020347  -0.123895   0.273492  -0.063257  -0.387347
   79  H  9  X   -0.083217  -0.088866   0.107636  -0.039322  -0.130569
   80  H  9  Y   -0.028732  -0.078589   0.038255   0.087117  -0.139077
   81  H  9  Z    0.000000   0.000000   0.000000   0.000000   0.000000
   82  H 10  S    0.200413  -0.249858   0.266450   0.002401  -0.263640
   83  H 10  S    0.020347   0.123895  -0.273492  -0.063257   0.387347
   84  H 10  X    0.083217  -0.088866   0.107636   0.039322  -0.130569
   85  H 10  Y    0.028732  -0.078589   0.038255  -0.087117  -0.139077
   86  H 10  Z    0.000000   0.000000   0.000000   0.000000   0.000000

                     26         27         28         29         30
                   -4.7941    -5.4706    -5.5470    -4.6528    -5.2938
                     AG         AG         BU         BG         AU  
    1  C  1  S    0.317726   0.609111  -0.125168   0.000000   0.000000
    2  C  1  S    1.165121  -0.674321  -0.646035   0.000000   0.000000
    3  C  1  X   -0.326295   0.223053  -0.191450   0.000000   0.000000
    4  C  1  Y    0.212804   0.608888   0.249772   0.000000   0.000000
    5  C  1  Z    0.000000   0.000000   0.000000   0.260241  -0.657460
    6  C  1  X   -0.340978  -0.165444   1.009970   0.000000   0.000000
    7  C  1  Y    0.155427  -0.976683  -0.507452   0.000000   0.000000
    8  C  1  Z    0.000000   0.000000   0.000000  -1.078568   0.570529
    9  C  1 XX    0.000824   0.096760   0.053643   0.000000   0.000000
   10  C  1 YY    0.016722   0.070217   0.068070   0.000000   0.000000
   11  C  1 ZZ   -0.016575  -0.087366  -0.079492   0.000000   0.000000
   12  C  1 XY   -0.010115   0.012611  -0.025000   0.000000   0.000000
   13  C  1 XZ    0.000000   0.000000   0.000000   0.038821   0.033006
   14  C  1 YZ    0.000000   0.000000   0.000000  -0.007997  -0.060791
   15  C  2  S    0.317726   0.609111   0.125168   0.000000   0.000000
   16  C  2  S    1.165121  -0.674321   0.646035   0.000000   0.000000
   17  C  2  X    0.326295  -0.223053  -0.191450   0.000000   0.000000
   18  C  2  Y   -0.212804  -0.608888   0.249772   0.000000   0.000000
   19  C  2  Z    0.000000   0.000000   0.000000  -0.260241  -0.657460
   20  C  2  X    0.340978   0.165444   1.009970   0.000000   0.000000
   21  C  2  Y   -0.155427   0.976683  -0.507452   0.000000   0.000000
   22  C  2  Z    0.000000   0.000000   0.000000   1.078568   0.570529
   23  C  2 XX    0.000824   0.096760  -0.053643   0.000000   0.000000
   24  C  2 YY    0.016722   0.070217  -0.068070   0.000000   0.000000
   25  C  2 ZZ   -0.016575  -0.087366   0.079492   0.000000   0.000000
   26  C  2 XY   -0.010115   0.012611   0.025000   0.000000   0.000000
   27  C  2 XZ    0.000000   0.000000   0.000000   0.038821  -0.033006
   28  C  2 YZ    0.000000   0.000000   0.000000  -0.007997   0.060791
   29  C  3  S   -0.295893   0.398366   0.503964   0.000000   0.000000
   30  C  3  S   -0.929859  -0.262482   0.501242   0.000000   0.000000
   31  C  3  X    0.346494   0.008813   0.555393   0.000000   0.000000
   32  C  3  Y   -0.011979  -0.188311  -0.160957   0.000000   0.000000
   33  C  3  Z    0.000000   0.000000   0.000000  -0.844534  -0.740198
   34  C  3  X   -1.324551   0.087528   0.044839   0.000000   0.000000
   35  C  3  Y    0.452435   0.255725  -0.176529   0.000000   0.000000
   36  C  3  Z    0.000000   0.000000   0.000000   1.459580   0.895812
   37  C  3 XX    0.074985   0.009628   0.007101   0.000000   0.000000
   38  C  3 YY    0.062539  -0.007811   0.051512   0.000000   0.000000
   39  C  3 ZZ   -0.117094  -0.002173  -0.041681   0.000000   0.000000
   40  C  3 XY    0.050627  -0.009540   0.040468   0.000000   0.000000
   41  C  3 XZ    0.000000   0.000000   0.000000   0.024583  -0.064308
   42  C  3 YZ    0.000000   0.000000   0.000000   0.015246   0.033461
   43  C  4  S   -0.295893   0.398366  -0.503964   0.000000   0.000000
   44  C  4  S   -0.929859  -0.262482  -0.501242   0.000000   0.000000
   45  C  4  X   -0.346494  -0.008813   0.555393   0.000000   0.000000
   46  C  4  Y    0.011979   0.188311  -0.160957   0.000000   0.000000
   47  C  4  Z    0.000000   0.000000   0.000000   0.844534  -0.740198
   48  C  4  X    1.324551  -0.087528   0.044839   0.000000   0.000000
   49  C  4  Y   -0.452435  -0.255725  -0.176529   0.000000   0.000000
   50  C  4  Z    0.000000   0.000000   0.000000  -1.459580   0.895812
   51  C  4 XX    0.074985   0.009628  -0.007101   0.000000   0.000000
   52  C  4 YY    0.062539  -0.007811  -0.051512   0.000000   0.000000
   53  C  4 ZZ   -0.117094  -0.002173   0.041681   0.000000   0.000000
   54  C  4 XY    0.050627  -0.009540  -0.040468   0.000000   0.000000
   55  C  4 XZ    0.000000   0.000000   0.000000   0.024583   0.064308
   56  C  4 YZ    0.000000   0.000000   0.000000   0.015246  -0.033461
   57  H  5  S    0.176405   0.089556   0.226674   0.000000   0.000000
   58  H  5  S   -0.277001   0.034426   0.049953   0.000000   0.000000
   59  H  5  X    0.026058  -0.074119   0.001220   0.000000   0.000000
   60  H  5  Y    0.148097  -0.008423   0.071361   0.000000   0.000000
   61  H  5  Z    0.000000   0.000000   0.000000  -0.028580  -0.029701
   62  H  6  S    0.176405   0.089556  -0.226674   0.000000   0.000000
   63  H  6  S   -0.277001   0.034426  -0.049953   0.000000   0.000000
   64  H  6  X   -0.026058   0.074119   0.001220   0.000000   0.000000
   65  H  6  Y   -0.148097   0.008423   0.071361   0.000000   0.000000
   66  H  6  Z    0.000000   0.000000   0.000000   0.028580  -0.029701
   67  H  7  S    0.028897   0.163790   0.091680   0.000000   0.000000
   68  H  7  S    0.258484  -0.154728  -0.236311   0.000000   0.000000
   69  H  7  X   -0.026903  -0.022699   0.087937   0.000000   0.000000
   70  H  7  Y   -0.032169  -0.172886  -0.159253   0.000000   0.000000
   71  H  7  Z    0.000000   0.000000   0.000000  -0.005224  -0.001292
   72  H  8  S    0.028897   0.163790  -0.091680   0.000000   0.000000
   73  H  8  S    0.258484  -0.154728   0.236311   0.000000   0.000000
   74  H  8  X    0.026903   0.022699   0.087937   0.000000   0.000000
   75  H  8  Y    0.032169   0.172886  -0.159253   0.000000   0.000000
   76  H  8  Z    0.000000   0.000000   0.000000   0.005224  -0.001292
   77  H  9  S    0.267225  -0.143099   0.127946   0.000000   0.000000
   78  H  9  S   -0.402819   0.212896   0.016112   0.000000   0.000000
   79  H  9  X   -0.187827   0.114801  -0.043168   0.000000   0.000000
   80  H  9  Y   -0.139916   0.036549  -0.101742   0.000000   0.000000
   81  H  9  Z    0.000000   0.000000   0.000000  -0.082538  -0.041142
   82  H 10  S    0.267225  -0.143099  -0.127946   0.000000   0.000000
   83  H 10  S   -0.402819   0.212896  -0.016112   0.000000   0.000000
   84  H 10  X    0.187827  -0.114801  -0.043168   0.000000   0.000000
   85  H 10  Y    0.139916  -0.036549  -0.101742   0.000000   0.000000
   86  H 10  Z    0.000000   0.000000   0.000000   0.082538  -0.041142

                     31         32         33         34         35
                   -4.7917    -4.6891    -5.2205    -4.8833    -4.8403
                     AG         AG         BG         BU         AU  
    1  C  1  S   -0.313908  -1.063715   0.000000   0.183284   0.000000
    2  C  1  S    0.780904   2.469603   0.000000  -0.507197   0.000000
    3  C  1  X   -0.234978   0.137305   0.000000   0.123378   0.000000
    4  C  1  Y    0.009082   0.357908   0.000000   0.139081   0.000000
    5  C  1  Z    0.000000   0.000000  -0.832064   0.000000   0.729131
    6  C  1  X    0.193397  -0.606846   0.000000   1.002815   0.000000
    7  C  1  Y   -0.268314  -0.684232   0.000000  -0.053722   0.000000
    8  C  1  Z    0.000000   0.000000   1.554197   0.000000  -1.160486
    9  C  1 XX    0.013785  -0.054264   0.000000  -0.034091   0.000000
   10  C  1 YY   -0.057061   0.001704   0.000000   0.030366   0.000000
   11  C  1 ZZ    0.018028   0.019335   0.000000   0.007189   0.000000
   12  C  1 XY   -0.004315  -0.007474   0.000000   0.034302   0.000000
   13  C  1 XZ    0.000000   0.000000   0.078410   0.000000   0.101977
   14  C  1 YZ    0.000000   0.000000  -0.050898   0.000000   0.011358
   15  C  2  S   -0.313908  -1.063715   0.000000  -0.183284   0.000000
   16  C  2  S    0.780904   2.469603   0.000000   0.507197   0.000000
   17  C  2  X    0.234978  -0.137305   0.000000   0.123378   0.000000
   18  C  2  Y   -0.009082  -0.357908   0.000000   0.139081   0.000000
   19  C  2  Z    0.000000   0.000000   0.832064   0.000000   0.729131
   20  C  2  X   -0.193397   0.606846   0.000000   1.002815   0.000000
   21  C  2  Y    0.268314   0.684232   0.000000  -0.053722   0.000000
   22  C  2  Z    0.000000   0.000000  -1.554197   0.000000  -1.160486
   23  C  2 XX    0.013785  -0.054264   0.000000   0.034091   0.000000
   24  C  2 YY   -0.057061   0.001704   0.000000  -0.030366   0.000000
   25  C  2 ZZ    0.018028   0.019335   0.000000  -0.007189   0.000000
   26  C  2 XY   -0.004315  -0.007474   0.000000  -0.034302   0.000000
   27  C  2 XZ    0.000000   0.000000   0.078410   0.000000  -0.101977
   28  C  2 YZ    0.000000   0.000000  -0.050898   0.000000  -0.011358
   29  C  3  S   -0.121326  -0.730707   0.000000  -0.045103   0.000000
   30  C  3  S    0.225515   0.487813   0.000000   1.214790   0.000000
   31  C  3  X   -0.118240   0.019943   0.000000  -0.342088   0.000000
   32  C  3  Y   -0.721817   0.107138   0.000000  -0.695473   0.000000
   33  C  3  Z    0.000000   0.000000  -0.407602   0.000000  -0.570844
   34  C  3  X   -0.033926  -0.433538   0.000000   1.206529   0.000000
   35  C  3  Y    1.442021   0.102434   0.000000   0.916733   0.000000
   36  C  3  Z    0.000000   0.000000   0.181662   0.000000   1.161540
   37  C  3 XX   -0.048382  -0.044641   0.000000  -0.017408   0.000000
   38  C  3 YY    0.035388  -0.039566   0.000000   0.039611   0.000000
   39  C  3 ZZ    0.006043   0.032779   0.000000  -0.003630   0.000000
   40  C  3 XY   -0.053622   0.056232   0.000000  -0.042282   0.000000
   41  C  3 XZ    0.000000   0.000000  -0.099064   0.000000   0.018840
   42  C  3 YZ    0.000000   0.000000  -0.007523   0.000000  -0.027586
   43  C  4  S   -0.121326  -0.730707   0.000000   0.045103   0.000000
   44  C  4  S    0.225515   0.487813   0.000000  -1.214790   0.000000
   45  C  4  X    0.118240  -0.019943   0.000000  -0.342088   0.000000
   46  C  4  Y    0.721817  -0.107138   0.000000  -0.695473   0.000000
   47  C  4  Z    0.000000   0.000000   0.407602   0.000000  -0.570844
   48  C  4  X    0.033926   0.433538   0.000000   1.206529   0.000000
   49  C  4  Y   -1.442021  -0.102434   0.000000   0.916733   0.000000
   50  C  4  Z    0.000000   0.000000  -0.181662   0.000000   1.161540
   51  C  4 XX   -0.048382  -0.044641   0.000000   0.017408   0.000000
   52  C  4 YY    0.035388  -0.039566   0.000000  -0.039611   0.000000
   53  C  4 ZZ    0.006043   0.032779   0.000000   0.003630   0.000000
   54  C  4 XY   -0.053622   0.056232   0.000000   0.042282   0.000000
   55  C  4 XZ    0.000000   0.000000  -0.099064   0.000000  -0.018840
   56  C  4 YZ    0.000000   0.000000  -0.007523   0.000000   0.027586
   57  H  5  S   -0.216964  -0.087584   0.000000  -0.116956   0.000000
   58  H  5  S   -0.795946   0.036206   0.000000  -0.567595   0.000000
   59  H  5  X   -0.029310   0.017146   0.000000  -0.056608   0.000000
   60  H  5  Y    0.183021   0.021250   0.000000   0.204811   0.000000
   61  H  5  Z    0.000000   0.000000  -0.058569   0.000000  -0.040610
   62  H  6  S   -0.216964  -0.087584   0.000000   0.116956   0.000000
   63  H  6  S   -0.795946   0.036206   0.000000   0.567595   0.000000
   64  H  6  X    0.029310  -0.017146   0.000000  -0.056608   0.000000
   65  H  6  Y   -0.183021  -0.021250   0.000000   0.204811   0.000000
   66  H  6  Z    0.000000   0.000000   0.058569   0.000000  -0.040610
   67  H  7  S   -0.088985  -0.237936   0.000000   0.196833   0.000000
   68  H  7  S   -0.008337  -0.740512   0.000000  -0.141373   0.000000
   69  H  7  X    0.096691  -0.014866   0.000000   0.031590   0.000000
   70  H  7  Y   -0.003080  -0.187718   0.000000  -0.065297   0.000000
   71  H  7  Z    0.000000   0.000000   0.029153   0.000000   0.026409
   72  H  8  S   -0.088985  -0.237936   0.000000  -0.196833   0.000000
   73  H  8  S   -0.008337  -0.740512   0.000000   0.141373   0.000000
   74  H  8  X   -0.096691   0.014866   0.000000   0.031590   0.000000
   75  H  8  Y    0.003080   0.187718   0.000000  -0.065297   0.000000
   76  H  8  Z    0.000000   0.000000  -0.029153   0.000000   0.026409
   77  H  9  S    0.006118  -0.187884   0.000000   0.170125   0.000000
   78  H  9  S    0.463088  -0.231695   0.000000   0.597606   0.000000
   79  H  9  X    0.122972  -0.020800   0.000000   0.137203   0.000000
   80  H  9  Y    0.075464  -0.093366   0.000000   0.095727   0.000000
   81  H  9  Z    0.000000   0.000000   0.040501   0.000000   0.015478
   82  H 10  S    0.006118  -0.187884   0.000000  -0.170125   0.000000
   83  H 10  S    0.463088  -0.231695   0.000000  -0.597606   0.000000
   84  H 10  X   -0.122972   0.020800   0.000000   0.137203   0.000000
   85  H 10  Y   -0.075464   0.093366   0.000000   0.095727   0.000000
   86  H 10  Z    0.000000   0.000000  -0.040501   0.000000   0.015478

                     36         37         38         39         40
                   -4.4256    -5.1296    -4.2432    -5.4026    -4.7143
                     BU         BU         AG         BU         AU  
    1  C  1  S    0.759602   0.003504   0.657826  -0.222221   0.000000
    2  C  1  S   -2.249379   0.802135  -3.257641   1.533182   0.000000
    3  C  1  X   -0.012382   0.171599   0.165880  -0.854622   0.000000
    4  C  1  Y   -0.240590   0.613698  -0.128097  -0.264708   0.000000
    5  C  1  Z    0.000000   0.000000   0.000000   0.000000   0.025487
    6  C  1  X   -1.438212  -0.630990   1.309192   4.750422   0.000000
    7  C  1  Y   -0.082845  -0.841539  -0.393412   1.537068   0.000000
    8  C  1  Z    0.000000   0.000000   0.000000   0.000000  -0.007779
    9  C  1 XX    0.073322  -0.139769   0.031187  -0.030081   0.000000
   10  C  1 YY   -0.028854  -0.005939  -0.014676   0.091425   0.000000
   11  C  1 ZZ   -0.017955   0.058299  -0.011932  -0.020518   0.000000
   12  C  1 XY   -0.063522  -0.025806   0.022464   0.269089   0.000000
   13  C  1 XZ    0.000000   0.000000   0.000000   0.000000   0.100720
   14  C  1 YZ    0.000000   0.000000   0.000000   0.000000   0.131514
   15  C  2  S   -0.759602  -0.003504   0.657826   0.222221   0.000000
   16  C  2  S    2.249379  -0.802135  -3.257641  -1.533182   0.000000
   17  C  2  X   -0.012382   0.171599  -0.165880  -0.854622   0.000000
   18  C  2  Y   -0.240590   0.613698   0.128097  -0.264708   0.000000
   19  C  2  Z    0.000000   0.000000   0.000000   0.000000   0.025487
   20  C  2  X   -1.438212  -0.630990  -1.309192   4.750422   0.000000
   21  C  2  Y   -0.082845  -0.841539   0.393412   1.537068   0.000000
   22  C  2  Z    0.000000   0.000000   0.000000   0.000000  -0.007779
   23  C  2 XX   -0.073322   0.139769   0.031187   0.030081   0.000000
   24  C  2 YY    0.028854   0.005939  -0.014676  -0.091425   0.000000
   25  C  2 ZZ    0.017955  -0.058299  -0.011932   0.020518   0.000000
   26  C  2 XY    0.063522   0.025806   0.022464  -0.269089   0.000000
   27  C  2 XZ    0.000000   0.000000   0.000000   0.000000  -0.100720
   28  C  2 YZ    0.000000   0.000000   0.000000   0.000000  -0.131514
   29  C  3  S    1.141126   0.435204  -0.810470  -0.109037   0.000000
   30  C  3  S   -2.977147  -1.853906   4.447413   2.813332   0.000000
   31  C  3  X   -0.060247  -0.412664   0.415569  -0.350127   0.000000
   32  C  3  Y    0.020588   0.185077  -0.043952   0.219858   0.000000
   33  C  3  Z    0.000000   0.000000   0.000000   0.000000  -0.025222
   34  C  3  X   -0.011110   0.370615   0.038047   1.843602   0.000000
   35  C  3  Y    0.370984  -0.287873  -0.528794  -1.540432   0.000000
   36  C  3  Z    0.000000   0.000000   0.000000   0.000000   0.034131
   37  C  3 XX    0.064173   0.065392  -0.021165   0.074336   0.000000
   38  C  3 YY   -0.015287   0.018635  -0.034207   0.066459   0.000000
   39  C  3 ZZ   -0.021125  -0.033881   0.050758  -0.074281   0.000000
   40  C  3 XY    0.026937  -0.031198  -0.040169  -0.130143   0.000000
   41  C  3 XZ    0.000000   0.000000   0.000000   0.000000   0.072861
   42  C  3 YZ    0.000000   0.000000   0.000000   0.000000   0.182245
   43  C  4  S   -1.141126  -0.435204  -0.810470   0.109037   0.000000
   44  C  4  S    2.977147   1.853906   4.447413  -2.813332   0.000000
   45  C  4  X   -0.060247  -0.412664  -0.415569  -0.350127   0.000000
   46  C  4  Y    0.020588   0.185077   0.043952   0.219858   0.000000
   47  C  4  Z    0.000000   0.000000   0.000000   0.000000  -0.025222
   48  C  4  X   -0.011110   0.370615  -0.038047   1.843602   0.000000
   49  C  4  Y    0.370984  -0.287873   0.528794  -1.540432   0.000000
   50  C  4  Z    0.000000   0.000000   0.000000   0.000000   0.034131
   51  C  4 XX   -0.064173  -0.065392  -0.021165  -0.074336   0.000000
   52  C  4 YY    0.015287  -0.018635  -0.034207  -0.066459   0.000000
   53  C  4 ZZ    0.021125   0.033881   0.050758   0.074281   0.000000
   54  C  4 XY   -0.026937   0.031198  -0.040169   0.130143   0.000000
   55  C  4 XZ    0.000000   0.000000   0.000000   0.000000  -0.072861
   56  C  4 YZ    0.000000   0.000000   0.000000   0.000000  -0.182245
   57  H  5  S    0.056625   0.438614  -0.337392   0.244060   0.000000
   58  H  5  S    0.587925   0.151583  -0.437886   0.320708   0.000000
   59  H  5  X    0.083292  -0.082388  -0.052101  -0.100970   0.000000
   60  H  5  Y   -0.154610  -0.024946   0.049305   0.034299   0.000000
   61  H  5  Z    0.000000   0.000000   0.000000   0.000000   0.369471
   62  H  6  S   -0.056625  -0.438614  -0.337392  -0.244060   0.000000
   63  H  6  S   -0.587925  -0.151583  -0.437886  -0.320708   0.000000
   64  H  6  X    0.083292  -0.082388   0.052101  -0.100970   0.000000
   65  H  6  Y   -0.154610  -0.024946  -0.049305   0.034299   0.000000
   66  H  6  Z    0.000000   0.000000   0.000000   0.000000   0.369471
   67  H  7  S    0.169485  -0.349931   0.056332   0.132666   0.000000
   68  H  7  S    0.614378  -0.425141   0.558778   0.237529   0.000000
   69  H  7  X    0.046053   0.059401  -0.032451  -0.124212   0.000000
   70  H  7  Y    0.150072  -0.062422   0.120838  -0.035100   0.000000
   71  H  7  Z    0.000000   0.000000   0.000000   0.000000  -0.194871
   72  H  8  S   -0.169485   0.349931   0.056332  -0.132666   0.000000
   73  H  8  S   -0.614378   0.425141   0.558778  -0.237529   0.000000
   74  H  8  X    0.046053   0.059401   0.032451  -0.124212   0.000000
   75  H  8  Y    0.150072  -0.062422  -0.120838  -0.035100   0.000000
   76  H  8  Z    0.000000   0.000000   0.000000   0.000000  -0.194871
   77  H  9  S    0.397242   0.107376  -0.573022   0.137207   0.000000
   78  H  9  S    0.215471   0.358849  -0.568262  -0.125483   0.000000
   79  H  9  X    0.048137   0.106405  -0.084440  -0.101787   0.000000
   80  H  9  Y    0.067950  -0.000791  -0.011192   0.063889   0.000000
   81  H  9  Z    0.000000   0.000000   0.000000   0.000000  -0.334629
   82  H 10  S   -0.397242  -0.107376  -0.573022  -0.137207   0.000000
   83  H 10  S   -0.215471  -0.358849  -0.568262   0.125483   0.000000
   84  H 10  X    0.048137   0.106405   0.084440  -0.101787   0.000000
   85  H 10  Y    0.067950  -0.000791   0.011192   0.063889   0.000000
   86  H 10  Z    0.000000   0.000000   0.000000   0.000000  -0.334629

                     41         42         43         44         45
                   -4.4059    -5.5934    -4.6277    -4.9953    -4.8062
                     BG         AG         BU         BG         AU  
    1  C  1  S    0.000000   0.616686   1.538520   0.000000   0.000000
    2  C  1  S    0.000000  -4.484835  -9.653030   0.000000   0.000000
    3  C  1  X    0.000000  -0.551719   0.039068   0.000000   0.000000
    4  C  1  Y    0.000000   0.361368   0.308397   0.000000   0.000000
    5  C  1  Z   -0.209790   0.000000   0.000000  -0.213516   0.070814
    6  C  1  X    0.000000   2.869044   0.248332   0.000000   0.000000
    7  C  1  Y    0.000000  -1.874272  -1.872455   0.000000   0.000000
    8  C  1  Z    0.482738   0.000000   0.000000   0.597183  -0.238149
    9  C  1 XX    0.000000  -0.154361  -0.303627   0.000000   0.000000
   10  C  1 YY    0.000000  -0.066842   0.031332   0.000000   0.000000
   11  C  1 ZZ    0.000000   0.112903   0.017270   0.000000   0.000000
   12  C  1 XY    0.000000   0.161624  -0.028957   0.000000   0.000000
   13  C  1 XZ    0.012039   0.000000   0.000000  -0.143439  -0.068702
   14  C  1 YZ    0.079455   0.000000   0.000000   0.206175  -0.168633
   15  C  2  S    0.000000   0.616686  -1.538520   0.000000   0.000000
   16  C  2  S    0.000000  -4.484835   9.653030   0.000000   0.000000
   17  C  2  X    0.000000   0.551719   0.039068   0.000000   0.000000
   18  C  2  Y    0.000000  -0.361368   0.308397   0.000000   0.000000
   19  C  2  Z    0.209790   0.000000   0.000000   0.213516   0.070814
   20  C  2  X    0.000000  -2.869044   0.248332   0.000000   0.000000
   21  C  2  Y    0.000000   1.874272  -1.872455   0.000000   0.000000
   22  C  2  Z   -0.482738   0.000000   0.000000  -0.597183  -0.238149
   23  C  2 XX    0.000000  -0.154361   0.303627   0.000000   0.000000
   24  C  2 YY    0.000000  -0.066842  -0.031332   0.000000   0.000000
   25  C  2 ZZ    0.000000   0.112903  -0.017270   0.000000   0.000000
   26  C  2 XY    0.000000   0.161624   0.028957   0.000000   0.000000
   27  C  2 XZ    0.012039   0.000000   0.000000  -0.143439   0.068702
   28  C  2 YZ    0.079455   0.000000   0.000000   0.206175   0.168633
   29  C  3  S    0.000000  -0.584483  -0.486029   0.000000   0.000000
   30  C  3  S    0.000000   4.903231   5.165140   0.000000   0.000000
   31  C  3  X    0.000000  -0.588011  -0.021693   0.000000   0.000000
   32  C  3  Y    0.000000   0.267618   0.112428   0.000000   0.000000
   33  C  3  Z    0.010568   0.000000   0.000000  -0.039326   0.013437
   34  C  3  X    0.000000   2.437624   1.904124   0.000000   0.000000
   35  C  3  Y    0.000000  -1.105716  -0.950204   0.000000   0.000000
   36  C  3  Z   -0.110753   0.000000   0.000000   0.027305   0.001049
   37  C  3 XX    0.000000   0.235301   0.214059   0.000000   0.000000
   38  C  3 YY    0.000000  -0.054101  -0.041624   0.000000   0.000000
   39  C  3 ZZ    0.000000  -0.061097  -0.055641   0.000000   0.000000
   40  C  3 XY    0.000000  -0.173157  -0.132234   0.000000   0.000000
   41  C  3 XZ    0.081917   0.000000   0.000000   0.144815  -0.042560
   42  C  3 YZ    0.161858   0.000000   0.000000  -0.058568   0.036514
   43  C  4  S    0.000000  -0.584483   0.486029   0.000000   0.000000
   44  C  4  S    0.000000   4.903231  -5.165140   0.000000   0.000000
   45  C  4  X    0.000000   0.588011  -0.021693   0.000000   0.000000
   46  C  4  Y    0.000000  -0.267618   0.112428   0.000000   0.000000
   47  C  4  Z   -0.010568   0.000000   0.000000   0.039326   0.013437
   48  C  4  X    0.000000  -2.437624   1.904124   0.000000   0.000000
   49  C  4  Y    0.000000   1.105716  -0.950204   0.000000   0.000000
   50  C  4  Z    0.110753   0.000000   0.000000  -0.027305   0.001049
   51  C  4 XX    0.000000   0.235301  -0.214059   0.000000   0.000000
   52  C  4 YY    0.000000  -0.054101   0.041624   0.000000   0.000000
   53  C  4 ZZ    0.000000  -0.061097   0.055641   0.000000   0.000000
   54  C  4 XY    0.000000  -0.173157   0.132234   0.000000   0.000000
   55  C  4 XZ    0.081917   0.000000   0.000000   0.144815   0.042560
   56  C  4 YZ    0.161858   0.000000   0.000000  -0.058568  -0.036514
   57  H  5  S    0.000000  -0.098927  -0.115374   0.000000   0.000000
   58  H  5  S    0.000000  -0.036613  -0.003813   0.000000   0.000000
   59  H  5  X    0.000000  -0.039687  -0.256092   0.000000   0.000000
   60  H  5  Y    0.000000  -0.007537   0.003414   0.000000   0.000000
   61  H  5  Z    0.367668   0.000000   0.000000  -0.318789   0.288251
   62  H  6  S    0.000000  -0.098927   0.115374   0.000000   0.000000
   63  H  6  S    0.000000  -0.036613   0.003813   0.000000   0.000000
   64  H  6  X    0.000000   0.039687  -0.256092   0.000000   0.000000
   65  H  6  Y    0.000000   0.007537   0.003414   0.000000   0.000000
   66  H  6  Z   -0.367668   0.000000   0.000000   0.318789   0.288251
   67  H  7  S    0.000000  -0.201091   0.402028   0.000000   0.000000
   68  H  7  S    0.000000  -0.088548   0.493877   0.000000   0.000000
   69  H  7  X    0.000000  -0.150379   0.044246   0.000000   0.000000
   70  H  7  Y    0.000000   0.037330   0.124209   0.000000   0.000000
   71  H  7  Z    0.003572   0.000000   0.000000  -0.404236   0.557724
   72  H  8  S    0.000000  -0.201091  -0.402028   0.000000   0.000000
   73  H  8  S    0.000000  -0.088548  -0.493877   0.000000   0.000000
   74  H  8  X    0.000000   0.150379   0.044246   0.000000   0.000000
[...]
    3  C  1  X   -0.256135   0.400282   0.139490  -0.221259   0.000000
    4  C  1  Y   -0.259496  -0.211104  -0.193950  -0.377167   0.000000
    5  C  1  Z    0.000000   0.000000   0.000000   0.000000   0.463322
    6  C  1  X    0.033009  -0.115138  -0.011121   0.064221   0.000000
    7  C  1  Y    0.067378   0.055267   0.055340   0.034460   0.000000
    8  C  1  Z    0.000000   0.000000   0.000000   0.000000  -0.027365
    9  C  1 XX   -0.002583  -0.018114  -0.012553  -0.030270   0.000000
   10  C  1 YY    0.002863   0.023003   0.017670   0.031718   0.000000
   11  C  1 ZZ    0.000343  -0.001538  -0.000291  -0.001270   0.000000
   12  C  1 XY   -0.005359   0.021751  -0.013744  -0.020270   0.000000
   13  C  1 XZ    0.000000   0.000000   0.000000   0.000000  -0.001244
   14  C  1 YZ    0.000000   0.000000   0.000000   0.000000   0.015094
   15  C  2  S    0.024004  -0.002553  -0.068578  -0.070394   0.000000
   16  C  2  S    0.029898   0.047338  -0.041741  -0.023758   0.000000
   17  C  2  X    0.256135  -0.400282   0.139490   0.221259   0.000000
   18  C  2  Y    0.259496   0.211104  -0.193950   0.377167   0.000000
   19  C  2  Z    0.000000   0.000000   0.000000   0.000000   0.463322
   20  C  2  X   -0.033009   0.115138  -0.011121  -0.064221   0.000000
   21  C  2  Y   -0.067378  -0.055267   0.055340  -0.034460   0.000000
   22  C  2  Z    0.000000   0.000000   0.000000   0.000000  -0.027365
   23  C  2 XX   -0.002583  -0.018114   0.012553  -0.030270   0.000000
   24  C  2 YY    0.002863   0.023003  -0.017670   0.031718   0.000000
   25  C  2 ZZ    0.000343  -0.001538   0.000291  -0.001270   0.000000
   26  C  2 XY   -0.005359   0.021751   0.013744  -0.020270   0.000000
   27  C  2 XZ    0.000000   0.000000   0.000000   0.000000   0.001244
   28  C  2 YZ    0.000000   0.000000   0.000000   0.000000  -0.015094
   29  C  3  S   -0.028730  -0.083167  -0.019890  -0.011784   0.000000
   30  C  3  S   -0.029770  -0.005813   0.005839   0.038754   0.000000
   31  C  3  X   -0.009168  -0.440514   0.024333   0.121834   0.000000
   32  C  3  Y   -0.378178   0.071805   0.424454   0.244246   0.000000
   33  C  3  Z    0.000000   0.000000   0.000000   0.000000   0.350545
   34  C  3  X   -0.010212   0.082874  -0.005392  -0.000301   0.000000
   35  C  3  Y    0.096275  -0.002967  -0.086127  -0.035780   0.000000
   36  C  3  Z    0.000000   0.000000   0.000000   0.000000  -0.018558
   37  C  3 XX    0.006478  -0.006573  -0.023330  -0.023563   0.000000
   38  C  3 YY   -0.011074   0.010773   0.024151   0.023614   0.000000
   39  C  3 ZZ    0.000415  -0.003169   0.000325  -0.000711   0.000000
   40  C  3 XY   -0.001309   0.018477  -0.014061  -0.024122   0.000000
   41  C  3 XZ    0.000000   0.000000   0.000000   0.000000   0.019124
   42  C  3 YZ    0.000000   0.000000   0.000000   0.000000  -0.008097
   43  C  4  S   -0.028730  -0.083167   0.019890  -0.011784   0.000000
   44  C  4  S   -0.029770  -0.005813  -0.005839   0.038754   0.000000
   45  C  4  X    0.009168   0.440514   0.024333  -0.121834   0.000000
   46  C  4  Y    0.378178  -0.071805   0.424454  -0.244246   0.000000
   47  C  4  Z    0.000000   0.000000   0.000000   0.000000   0.350545
   48  C  4  X    0.010212  -0.082874  -0.005392   0.000301   0.000000
   49  C  4  Y   -0.096275   0.002967  -0.086127   0.035780   0.000000
   50  C  4  Z    0.000000   0.000000   0.000000   0.000000  -0.018558
   51  C  4 XX    0.006478  -0.006573   0.023330  -0.023563   0.000000
   52  C  4 YY   -0.011074   0.010773  -0.024151   0.023614   0.000000
   53  C  4 ZZ    0.000415  -0.003169  -0.000325  -0.000711   0.000000
   54  C  4 XY   -0.001309   0.018477   0.014061  -0.024122   0.000000
   55  C  4 XZ    0.000000   0.000000   0.000000   0.000000  -0.019124
   56  C  4 YZ    0.000000   0.000000   0.000000   0.000000   0.008097
   57  H  5  S   -0.231106   0.054801   0.274928   0.175965   0.000000
   58  H  5  S   -0.009069   0.000543   0.058686   0.041114   0.000000
   59  H  5  X   -0.001561  -0.008018   0.002693   0.006649   0.000000
   60  H  5  Y    0.013206  -0.000014  -0.009480  -0.002135   0.000000
   61  H  5  Z    0.000000   0.000000   0.000000   0.000000   0.009994
   62  H  6  S   -0.231106   0.054801  -0.274928   0.175965   0.000000
   63  H  6  S   -0.009069   0.000543  -0.058686   0.041114   0.000000
   64  H  6  X    0.001561   0.008018   0.002693  -0.006649   0.000000
   65  H  6  Y   -0.013206   0.000014  -0.009480   0.002135   0.000000
   66  H  6  Z    0.000000   0.000000   0.000000   0.000000   0.009994
   67  H  7  S    0.146986   0.168045   0.166742   0.244601   0.000000
   68  H  7  S    0.013350   0.034397   0.046015   0.053444   0.000000
   69  H  7  X   -0.007229   0.010548  -0.001590  -0.004792   0.000000
   70  H  7  Y    0.009274   0.005630   0.006636   0.003940   0.000000
   71  H  7  Z    0.000000   0.000000   0.000000   0.000000   0.012360
   72  H  8  S    0.146986   0.168045  -0.166742   0.244601   0.000000
   73  H  8  S    0.013350   0.034397  -0.046015   0.053444   0.000000
   74  H  8  X    0.007229  -0.010548  -0.001590   0.004792   0.000000
   75  H  8  Y   -0.009274  -0.005630   0.006636  -0.003940   0.000000
   76  H  8  Z    0.000000   0.000000   0.000000   0.000000   0.012360
   77  H  9  S    0.119852   0.183976  -0.186736  -0.184125   0.000000
   78  H  9  S   -0.002127   0.026535  -0.039094  -0.051426   0.000000
   79  H  9  X    0.011265   0.000316  -0.010525  -0.005491   0.000000
   80  H  9  Y   -0.002172   0.008548   0.002782   0.000916   0.000000
   81  H  9  Z    0.000000   0.000000   0.000000   0.000000   0.009446
   82  H 10  S    0.119852   0.183976   0.186736  -0.184125   0.000000
   83  H 10  S   -0.002127   0.026535   0.039094  -0.051426   0.000000
   84  H 10  X   -0.011265  -0.000316  -0.010525   0.005491   0.000000
   85  H 10  Y    0.002172  -0.008548   0.002782  -0.000916   0.000000
   86  H 10  Z    0.000000   0.000000   0.000000   0.000000   0.009446

                     11         12         13
                    1.8861     0.1183     0.0603
                     BG         AU         BG  
    1  C  1  S    0.000000   0.000000   0.000000
    2  C  1  S    0.000000   0.000000   0.000000
    3  C  1  X    0.000000   0.000000   0.000000
    4  C  1  Y    0.000000   0.000000   0.000000
    5  C  1  Z    0.370323  -0.498569   0.760583
    6  C  1  X    0.000000   0.000000   0.000000
    7  C  1  Y    0.000000   0.000000   0.000000
    8  C  1  Z    0.023835   0.014161   0.031960
    9  C  1 XX    0.000000   0.000000   0.000000
   10  C  1 YY    0.000000   0.000000   0.000000
   11  C  1 ZZ    0.000000   0.000000   0.000000
   12  C  1 XY    0.000000   0.000000   0.000000
   13  C  1 XZ   -0.029900  -0.017333  -0.015475
   14  C  1 YZ    0.005284  -0.003272  -0.001009
   15  C  2  S    0.000000   0.000000   0.000000
   16  C  2  S    0.000000   0.000000   0.000000
   17  C  2  X    0.000000   0.000000   0.000000
   18  C  2  Y    0.000000   0.000000   0.000000
   19  C  2  Z   -0.370323  -0.498569  -0.760583
   20  C  2  X    0.000000   0.000000   0.000000
   21  C  2  Y    0.000000   0.000000   0.000000
   22  C  2  Z   -0.023835   0.014161  -0.031960
   23  C  2 XX    0.000000   0.000000   0.000000
   24  C  2 YY    0.000000   0.000000   0.000000
   25  C  2 ZZ    0.000000   0.000000   0.000000
   26  C  2 XY    0.000000   0.000000   0.000000
   27  C  2 XZ   -0.029900   0.017333  -0.015475
   28  C  2 YZ    0.005284   0.003272  -0.001009
   29  C  3  S    0.000000   0.000000   0.000000
   30  C  3  S    0.000000   0.000000   0.000000
   31  C  3  X    0.000000   0.000000   0.000000
   32  C  3  Y    0.000000   0.000000   0.000000
   33  C  3  Z    0.484130   0.659393  -0.569837
   34  C  3  X    0.000000   0.000000   0.000000
   35  C  3  Y    0.000000   0.000000   0.000000
   36  C  3  Z    0.026056  -0.001436   0.037112
   37  C  3 XX    0.000000   0.000000   0.000000
   38  C  3 YY    0.000000   0.000000   0.000000
   39  C  3 ZZ    0.000000   0.000000   0.000000
   40  C  3 XY    0.000000   0.000000   0.000000
   41  C  3 XZ    0.016164  -0.002327   0.009438
   42  C  3 YZ   -0.007341   0.000551  -0.003160
   43  C  4  S    0.000000   0.000000   0.000000
   44  C  4  S    0.000000   0.000000   0.000000
   45  C  4  X    0.000000   0.000000   0.000000
   46  C  4  Y    0.000000   0.000000   0.000000
   47  C  4  Z   -0.484130   0.659393   0.569837
   48  C  4  X    0.000000   0.000000   0.000000
   49  C  4  Y    0.000000   0.000000   0.000000
   50  C  4  Z   -0.026056  -0.001436  -0.037112
   51  C  4 XX    0.000000   0.000000   0.000000
   52  C  4 YY    0.000000   0.000000   0.000000
   53  C  4 ZZ    0.000000   0.000000   0.000000
   54  C  4 XY    0.000000   0.000000   0.000000
   55  C  4 XZ    0.016164   0.002327   0.009438
   56  C  4 YZ   -0.007341  -0.000551  -0.003160
   57  H  5  S    0.000000   0.000000   0.000000
   58  H  5  S    0.000000   0.000000   0.000000
   59  H  5  X    0.000000   0.000000   0.000000
   60  H  5  Y    0.000000   0.000000   0.000000
   61  H  5  Z    0.012294   0.009644  -0.006256
   62  H  6  S    0.000000   0.000000   0.000000
   63  H  6  S    0.000000   0.000000   0.000000
   64  H  6  X    0.000000   0.000000   0.000000
   65  H  6  Y    0.000000   0.000000   0.000000
   66  H  6  Z   -0.012294   0.009644   0.006256
   67  H  7  S    0.000000   0.000000   0.000000
   68  H  7  S    0.000000   0.000000   0.000000
   69  H  7  X    0.000000   0.000000   0.000000
   70  H  7  Y    0.000000   0.000000   0.000000
   71  H  7  Z    0.009022  -0.006390   0.008126
   72  H  8  S    0.000000   0.000000   0.000000
   73  H  8  S    0.000000   0.000000   0.000000
   74  H  8  X    0.000000   0.000000   0.000000
   75  H  8  Y    0.000000   0.000000   0.000000
   76  H  8  Z   -0.009022  -0.006390  -0.008126
   77  H  9  S    0.000000   0.000000   0.000000
   78  H  9  S    0.000000   0.000000   0.000000
   79  H  9  X    0.000000   0.000000   0.000000
   80  H  9  Y    0.000000   0.000000   0.000000
   81  H  9  Z    0.013038   0.009970  -0.006762
   82  H 10  S    0.000000   0.000000   0.000000
   83  H 10  S    0.000000   0.000000   0.000000
   84  H 10  X    0.000000   0.000000   0.000000
   85  H 10  Y    0.000000   0.000000   0.000000
   86  H 10  Z   -0.013038   0.009970   0.006762
 ...... END OF DENSITY MATRIX CALCULATION ...... 
 STEP CPU TIME =     0.00 TOTAL CPU TIME =          1.5 (      0.0 MIN)
 TOTAL WALL CLOCK TIME=          1.5 SECONDS, CPU UTILIZATION IS    99.49%

     --------------------------------------------------------
     GUGA  CI PROPERTIES...FOR THE WAVEFUNCTION OF STATE    1
               USING THE EXPECTATION VALUE DENSITY
     --------------------------------------------------------

          -----------------
          ENERGY COMPONENTS
          -----------------

         WAVEFUNCTION NORMALIZATION =       1.0000000000

                ONE ELECTRON ENERGY =    -149.3022054696
                TWO ELECTRON ENERGY =      67.3077761946
           NUCLEAR REPULSION ENERGY =      56.4214060261
                                      ------------------
                       TOTAL ENERGY =     -25.5730232490

 ELECTRON-ELECTRON POTENTIAL ENERGY =      67.3077761946
  NUCLEUS-ELECTRON POTENTIAL ENERGY =    -169.1193358504
   NUCLEUS-NUCLEUS POTENTIAL ENERGY =      56.4214060261
                                      ------------------
             TOTAL POTENTIAL ENERGY =     -45.3901536298
               TOTAL KINETIC ENERGY =      19.8171303808
                 VIRIAL RATIO (V/T) =       2.2904503708

          ---------------------------------------
          MULLIKEN AND LOWDIN POPULATION ANALYSES
          ---------------------------------------

               ----- POPULATIONS IN EACH AO -----
                             MULLIKEN      LOWDIN
              1  C  1  S      1.34735     0.43280
              2  C  1  S     -0.25324     0.15050
              3  C  1  X      1.14411     0.78388
              4  C  1  Y      1.17370     0.81970
              5  C  1  Z      0.98118     0.67774
              6  C  1  X     -0.25787     0.18035
              7  C  1  Y     -0.20165     0.25280
              8  C  1  Z     -0.02335     0.23599
              9  C  1 XX      0.05163     0.21355
             10  C  1 YY      0.04381     0.19035
             11  C  1 ZZ     -0.00506     0.07689
             12  C  1 XY      0.02579     0.06656
             13  C  1 XZ      0.01558     0.03637
             14  C  1 YZ      0.00348     0.00739
             15  C  2  S      1.34735     0.43280
             16  C  2  S     -0.25324     0.15050
             17  C  2  X      1.14411     0.78388
             18  C  2  Y      1.17370     0.81970
             19  C  2  Z      0.98118     0.67774
             20  C  2  X     -0.25787     0.18035
             21  C  2  Y     -0.20165     0.25280
             22  C  2  Z     -0.02335     0.23599
             23  C  2 XX      0.05163     0.21355
             24  C  2 YY      0.04381     0.19035
             25  C  2 ZZ     -0.00506     0.07689
             26  C  2 XY      0.02579     0.06656
             27  C  2 XZ      0.01558     0.03637
             28  C  2 YZ      0.00348     0.00739
             29  C  3  S      1.34933     0.44873
             30  C  3  S     -0.38478     0.17051
             31  C  3  X      1.19079     0.82779
             32  C  3  Y      1.19755     0.83342
             33  C  3  Z      0.97884     0.69025
             34  C  3  X     -0.23773     0.21860
             35  C  3  Y     -0.22478     0.26782
             36  C  3  Z      0.00826     0.24609
             37  C  3 XX      0.04325     0.20383
             38  C  3 YY      0.04010     0.18826
             39  C  3 ZZ     -0.00279     0.07981
             40  C  3 XY      0.02360     0.05952
             41  C  3 XZ      0.00915     0.01949
             42  C  3 YZ      0.00174     0.00389
             43  C  4  S      1.34933     0.44873
             44  C  4  S     -0.38478     0.17051
             45  C  4  X      1.19079     0.82779
             46  C  4  Y      1.19755     0.83342
             47  C  4  Z      0.97884     0.69025
             48  C  4  X     -0.23773     0.21860
             49  C  4  Y     -0.22478     0.26782
             50  C  4  Z      0.00826     0.24609
             51  C  4 XX      0.04325     0.20383
             52  C  4 YY      0.04010     0.18826
             53  C  4 ZZ     -0.00279     0.07981
             54  C  4 XY      0.02360     0.05952
             55  C  4 XZ      0.00915     0.01949
             56  C  4 YZ      0.00174     0.00389
             57  H  5  S      0.90645     0.68974
             58  H  5  S      0.04622     0.08823
             59  H  5  X      0.00853     0.02019
             60  H  5  Y      0.02154     0.05207
             61  H  5  Z      0.00847     0.02822
             62  H  6  S      0.90645     0.68974
             63  H  6  S      0.04622     0.08823
             64  H  6  X      0.00853     0.02019
             65  H  6  Y      0.02154     0.05207
             66  H  6  Z      0.00847     0.02822
             67  H  7  S      0.91164     0.69049
             68  H  7  S      0.04280     0.08681
             69  H  7  X      0.00798     0.01889
             70  H  7  Y      0.02165     0.05199
             71  H  7  Z      0.00797     0.02570
             72  H  8  S      0.91164     0.69049
             73  H  8  S      0.04280     0.08681
             74  H  8  X      0.00798     0.01889
             75  H  8  Y      0.02165     0.05199
             76  H  8  Z      0.00797     0.02570
             77  H  9  S      0.90456     0.68174
             78  H  9  S      0.03529     0.08347
             79  H  9  X      0.01764     0.03927
             80  H  9  Y      0.01260     0.03144
             81  H  9  Z      0.00868     0.02888
             82  H 10  S      0.90456     0.68174
             83  H 10  S      0.03529     0.08347
             84  H 10  X      0.01764     0.03927
             85  H 10  Y      0.01260     0.03144
             86  H 10  Z      0.00868     0.02888

          ----- MULLIKEN ATOMIC OVERLAP POPULATIONS -----
          (OFF-DIAGONAL ELEMENTS NEED TO BE MULTIPLIED BY 2)

             1           2           3           4           5

    1    2.7428416
    2    0.3993798   2.7428416
    3    0.6177183  -0.0765693   2.6154017
    4   -0.0765693   0.6177183   0.0083645   2.6154017
    5   -0.0281600  -0.0190632   0.4464619   0.0023180   0.6118837
    6   -0.0190632  -0.0281600   0.0023180   0.4464619  -0.0006413
    7    0.4496421  -0.0410112  -0.0291341  -0.0097077   0.0130179
    8   -0.0410112   0.4496421  -0.0097077  -0.0291341  -0.0050857
    9   -0.0101868   0.0108607   0.4188624  -0.0011936  -0.0295874
   10    0.0108607  -0.0101868  -0.0011936   0.4188624   0.0000646

             6           7           8           9          10

    6    0.6118837
    7   -0.0050857   0.6237594
    8    0.0130179   0.0071711   0.6237594
    9    0.0000646  -0.0171604   0.0005565   0.6064297
   10   -0.0295874   0.0005565  -0.0171604   0.0001241   0.6064297

          TOTAL MULLIKEN AND LOWDIN ATOMIC POPULATIONS
       ATOM         MULL.POP.    CHARGE          LOW.POP.     CHARGE
    1 C             4.045452   -0.045452         4.124856   -0.124856
    2 C             4.045452   -0.045452         4.124856   -0.124856
    3 C             3.992522    0.007478         4.258013   -0.258013
    4 C             3.992522    0.007478         4.258013   -0.258013
    5 H             0.991208    0.008792         0.878444    0.121556
    6 H             0.991208    0.008792         0.878444    0.121556
    7 H             0.992048    0.007952         0.873886    0.126114
    8 H             0.992048    0.007952         0.873886    0.126114
    9 H             0.978770    0.021230         0.864801    0.135199
   10 H             0.978770    0.021230         0.864801    0.135199

          ---------------------
          ELECTROSTATIC MOMENTS
          ---------------------

 POINT   1           X           Y           Z (BOHR)    CHARGE
                 0.000000    0.000000    0.000000        0.00 (A.U.)
         DX          DY          DZ         /D/  (DEBYE)
    -0.000000   -0.000000    0.000000    0.000000
 ...... END OF PROPERTY EVALUATION ......
 STEP CPU TIME =     0.01 TOTAL CPU TIME =          1.5 (      0.0 MIN)
 TOTAL WALL CLOCK TIME=          1.5 SECONDS, CPU UTILIZATION IS    99.50%
               1384058  WORDS OF DYNAMIC MEMORY USED
 EXECUTION OF GAMESS TERMINATED NORMALLY 16:06:34 02-FEB-2022    
 DDI: 263640 bytes (0.3 MB / 0 MWords) used by master data server.

 ----------------------------------------
 CPU timing information for all processes
 ========================================
 0: 1.198 + 0.311 = 1.510
 ----------------------------------------
 ddikick.x: exited gracefully.
----- accounting info -----
Files used on the master node ccp01 were:
-rw-rw-r-- 1 shinde shinde    22438 Feb  2 16:06 ./ci44_pVDZ.dat
-rw-r--r-- 1 shinde shinde   122041 Feb  2 16:06 ./ci44_pVDZ.F05
-rw-rw-r-- 1 shinde shinde 21421904 Feb  2 16:06 ./ci44_pVDZ.F08
-rw-rw-r-- 1 shinde shinde   180104 Feb  2 16:06 ./ci44_pVDZ.F09
-rw-rw-r-- 1 shinde shinde  2028640 Feb  2 16:06 ./ci44_pVDZ.F10
-rw-rw-r-- 1 shinde shinde   276952 Feb  2 16:06 ./ci44_pVDZ.F11
-rw-rw-r-- 1 shinde shinde      288 Feb  2 16:06 ./ci44_pVDZ.F12
-rw-rw-r-- 1 shinde shinde   400008 Feb  2 16:06 ./ci44_pVDZ.F14
-rw-rw-r-- 1 shinde shinde   160320 Feb  2 16:06 ./ci44_pVDZ.F15
-rw-rw-r-- 1 shinde shinde   200216 Feb  2 16:06 ./ci44_pVDZ.F16
-rw-r--r-- 1 shinde shinde   122041 Feb  2 16:06 ./ci44_pVDZ.inp
-rw-rw-r-- 1 shinde shinde   171169 Feb  2 16:06 ./ci44_pVDZ.out
-rwxrwxr-x 1 shinde shinde      133 Feb  2 16:06 ./ci44_pVDZ.sh*
-rw-rw-r-- 1 shinde shinde     4548 Feb  2 16:06 ./ci44_pVDZ.sh.out
Wed 02 Feb 2022 04:06:37 PM CET
0.132u 0.078s 0:04.84 4.1%	0+0k 240+1560io 0pf+0w
